
     Program PWSCF v.6.5 starts on 17Nov2022 at 10: 5:18 

     This program is part of the open-source Quantum ESPRESSO suite
     for quantum simulation of materials; please cite
         "P. Giannozzi et al., J. Phys.:Condens. Matter 21 395502 (2009);
         "P. Giannozzi et al., J. Phys.:Condens. Matter 29 465901 (2017);
          URL http://www.quantum-espresso.org", 
     in publications or presentations arising from this work. More details at
     http://www.quantum-espresso.org/quote

     Parallel version (MPI), running on    32 processors

     MPI processes distributed on     1 nodes
     R & G space division:  proc/nbgrp/npool/nimage =      32
     Reading input from QQQFDJ01new.in

     Current dimensions of program PWSCF are:
     Max number of different atomic species (ntypx) = 10
     Max number of k-points (npk) =  40000
     Max angular momentum in pseudopotentials (lmaxx) =  3
     Message from routine read_upf::
     Pseudo file H.b86bpbe.UPF has been fixed on the fly.
To avoid this message in the future, permanently fix 
 your pseudo files following these instructions: 
https://gitlab.com/QEF/q-e/blob/master/upftools/how_to_fix_upf.md
     Message from routine read_upf::
     Pseudo file C.b86bpbe.UPF has been fixed on the fly.
To avoid this message in the future, permanently fix 
 your pseudo files following these instructions: 
https://gitlab.com/QEF/q-e/blob/master/upftools/how_to_fix_upf.md
     Message from routine read_upf::
     Pseudo file O.b86bpbe.UPF has been fixed on the fly.
To avoid this message in the future, permanently fix 
 your pseudo files following these instructions: 
https://gitlab.com/QEF/q-e/blob/master/upftools/how_to_fix_upf.md
     Message from routine read_upf::
     Pseudo file N.b86bpbe.UPF has been fixed on the fly.
To avoid this message in the future, permanently fix 
 your pseudo files following these instructions: 
https://gitlab.com/QEF/q-e/blob/master/upftools/how_to_fix_upf.md
     Message from routine read_upf::
     Pseudo file S.b86bpbe.UPF has been fixed on the fly.
To avoid this message in the future, permanently fix 
 your pseudo files following these instructions: 
https://gitlab.com/QEF/q-e/blob/master/upftools/how_to_fix_upf.md
     Message from routine read_upf::
     Pseudo file F.b86bpbe.UPF has been fixed on the fly.
To avoid this message in the future, permanently fix 
 your pseudo files following these instructions: 
https://gitlab.com/QEF/q-e/blob/master/upftools/how_to_fix_upf.md
               file H.b86bpbe.UPF: wavefunction(s)  1S renormalized
               file C.b86bpbe.UPF: wavefunction(s)  2P renormalized
               file O.b86bpbe.UPF: wavefunction(s)  2P renormalized
               file N.b86bpbe.UPF: wavefunction(s)  2P renormalized
               file S.b86bpbe.UPF: wavefunction(s)  3P renormalized
               file F.b86bpbe.UPF: wavefunction(s)  2S 2P renormalized

     Subspace diagonalization in iterative solution of the eigenvalue problem:
     one sub-group per band group will be used
     scalapack distributed-memory algorithm (size of sub-group:  5*  5 procs)


     Parallelization info
     --------------------
     sticks:   dense  smooth     PW     G-vecs:    dense   smooth      PW
     Min         154      61     17                39728    10039    1523
     Max         155      62     18                39754    10062    1547
     Sum        4951    1965    563              1271653   321535   49023



     bravais-lattice index     =            0
     lattice parameter (alat)  =       7.3648  a.u.
     unit-cell volume          =    6735.3885 (a.u.)^3
     number of atoms/cell      =          108
     number of atomic types    =            6
     number of electrons       =       328.00
     number of Kohn-Sham states=          164
     kinetic-energy cutoff     =      50.0000  Ry
     charge density cutoff     =     500.0000  Ry
     convergence threshold     =      1.0E-08
     mixing beta               =       0.5000
     number of iterations used =            8  plain     mixing
     Exchange-correlation= SLA PW B86B PBC
                           (   1   4  22   4   0   0   0)
     nstep                     =          250


     celldm(1)=   7.364830  celldm(2)=   0.000000  celldm(3)=   0.000000
     celldm(4)=   0.000000  celldm(5)=   0.000000  celldm(6)=   0.000000

     crystal axes: (cart. coord. in units of alat)
               a(1) = (   0.961272  -0.000005   0.010071 )  
               a(2) = (  -0.000011   2.382436   0.000002 )  
               a(3) = (  -0.021952   0.000011   7.361958 )  

     reciprocal axes: (cart. coord. in units 2 pi/alat)
               b(1) = (  1.040256  0.000005  0.003102 )  
               b(2) = (  0.000002  0.419738 -0.000001 )  
               b(3) = ( -0.001423 -0.000000  0.135829 )  


     PseudoPot. # 1 for H  read from file:
     /home/punzueta/psuedo_files/H.b86bpbe.UPF
     MD5 check sum: a05c38eace8e4bf5ff015d364fdf499b
     Pseudo is Projector augmented-wave, Zval =  1.0
     Generated using "atomic" code by A. Dal Corso v.5.0.2 svn rev. 10467M
     Shape of augmentation charge: PSQ
     Using radial grid of  929 points,  2 beta functions with: 
                l(1) =   0
                l(2) =   0
     Q(r) pseudized with 0 coefficients 


     PseudoPot. # 2 for C  read from file:
     /home/punzueta/psuedo_files/C.b86bpbe.UPF
     MD5 check sum: d23c832541b58f97580b3287d177e92c
     Pseudo is Projector augmented-wave + core cor, Zval =  4.0
     Generated using "atomic" code by A. Dal Corso v.5.0.2 svn rev. 10467M
     Shape of augmentation charge: BESSEL
     Using radial grid of 1073 points,  4 beta functions with: 
                l(1) =   0
                l(2) =   0
                l(3) =   1
                l(4) =   1
     Q(r) pseudized with 0 coefficients 


     PseudoPot. # 3 for O  read from file:
     /home/punzueta/psuedo_files/O.b86bpbe.UPF
     MD5 check sum: e5d0ebeb85377a04d0834d2ed76ab915
     Pseudo is Projector augmented-wave + core cor, Zval =  6.0
     Generated using "atomic" code by A. Dal Corso v.5.0.2 svn rev. 10467M
     Shape of augmentation charge: BESSEL
     Using radial grid of 1095 points,  4 beta functions with: 
                l(1) =   0
                l(2) =   0
                l(3) =   1
                l(4) =   1
     Q(r) pseudized with 0 coefficients 


     PseudoPot. # 4 for N  read from file:
     /home/punzueta/psuedo_files/N.b86bpbe.UPF
     MD5 check sum: af778723f421ce17622347cbf03a6d58
     Pseudo is Projector augmented-wave + core cor, Zval =  5.0
     Generated using "atomic" code by A. Dal Corso v.5.0.2 svn rev. 10467M
     Shape of augmentation charge: PSQ
     Using radial grid of 1085 points,  4 beta functions with: 
                l(1) =   0
                l(2) =   0
                l(3) =   1
                l(4) =   1
     Q(r) pseudized with 0 coefficients 


     PseudoPot. # 5 for S  read from file:
     /home/punzueta/psuedo_files/S.b86bpbe.UPF
     MD5 check sum: 9da6d765f7f25328af8e159cf44f6261
     Pseudo is Projector augmented-wave + core cor, Zval =  6.0
     Generated using "atomic" code by A. Dal Corso v.6.1 svn rev. 13369
     Shape of augmentation charge: PSQ
     Using radial grid of 1151 points,  4 beta functions with: 
                l(1) =   0
                l(2) =   0
                l(3) =   1
                l(4) =   1
     Q(r) pseudized with 0 coefficients 


     PseudoPot. # 6 for F  read from file:
     /home/punzueta/psuedo_files/F.b86bpbe.UPF
     MD5 check sum: 13466b19af1e934bc4a3deaf9405988a
     Pseudo is Projector augmented-wave + core cor, Zval =  7.0
     Generated using "atomic" code by A. Dal Corso v.6.1 svn rev. 13369
     Shape of augmentation charge: PSQ
     Using radial grid of 1105 points,  4 beta functions with: 
                l(1) =   0
                l(2) =   0
                l(3) =   1
                l(4) =   1
     Q(r) pseudized with 0 coefficients 


     atomic species   valence    mass     pseudopotential
        H              1.00     1.00000     H ( 1.00)
        C              4.00    12.00000     C ( 1.00)
        O              6.00    16.00000     O ( 1.00)
        N              5.00    14.00000     N ( 1.00)
        S              6.00    32.00000     S ( 1.00)
        F              7.00    18.00000     F ( 1.00)

     No symmetry found


                                    s                        frac. trans.

      isym =  1     identity                                     

 cryst.   s( 1) = (     1          0          0      )
                  (     0          1          0      )
                  (     0          0          1      )

 cart.    s( 1) = (  1.0000000  0.0000000  0.0000000 )
                  ( -0.0000000  1.0000000 -0.0000000 )
                  ( -0.0000000 -0.0000000  1.0000000 )


   Cartesian axes

     site n.     atom                  positions (alat units)
         1           O   tau(   1) = (   0.1997478   0.8088547   3.8086313  )
         2           O   tau(   2) = (  -0.0983063   1.2132180   4.0943207  )
         3           C   tau(   3) = (   0.3275196   1.2318048   4.7306224  )
         4           C   tau(   4) = (   0.4682898   1.3635913   5.0250621  )
         5           C   tau(   5) = (   0.5386607   1.1506835   5.3113393  )
         6           C   tau(   6) = (   0.4661034   0.8075301   5.2953792  )
         7           C   tau(   7) = (   0.0195123  -0.1962927   4.6833484  )
         8           C   tau(   8) = (  -0.1311167  -0.3429096   4.4018907  )
         9           C   tau(   9) = (  -0.2104097  -0.1369215   4.1126454  )
        10           C   tau(  10) = (  -0.1346408   0.2066452   4.1079203  )
        11           C   tau(  11) = (   0.1103637   0.7226054   4.4027016  )
        12           C   tau(  12) = (   0.2501543   0.3099472   4.9772295  )
        13           C   tau(  13) = (   0.2464301   0.8762314   4.7026581  )
        14           C   tau(  14) = (   0.3199330   0.6604678   4.9945991  )
        15           C   tau(  15) = (   0.1007910   0.1597683   4.6890745  )
        16           C   tau(  16) = (   0.0283767   0.3687572   4.3923153  )
        17           C   tau(  17) = (   0.0597571   0.9358316   4.0906748  )
        18           H   tau(  18) = (   0.1433190   0.9618451   3.6002362  )
        19           H   tau(  19) = (   0.2771440   1.4001792   4.5150529  )
        20           H   tau(  20) = (   0.5295366   1.6359549   5.0375809  )
        21           H   tau(  21) = (   0.6516940   1.2602909   5.5415276  )
        22           H   tau(  22) = (   0.5193594   0.6392792   5.5122067  )
        23           H   tau(  23) = (   0.0800321  -0.3490171   4.9095656  )
        24           H   tau(  24) = (  -0.1918483  -0.6152089   4.3987302  )
        25           H   tau(  25) = (  -0.3351368  -0.2533561   3.8919835  )
        26           H   tau(  26) = (  -0.2031786   0.3579845   3.8846188  )
        27           H   tau(  27) = (   0.3095103   0.1485539   5.1974965  )
        28           O   tau(  28) = (   0.2481078   2.0000722   7.2394460  )
        29           O   tau(  29) = (   0.5461330   2.4044353   6.9537317  )
        30           C   tau(  30) = (   0.1202611   2.4230233   6.3174535  )
        31           C   tau(  31) = (  -0.0205177   2.5548173   6.0230265  )
        32           C   tau(  32) = (  -0.0908991   2.3419162   5.7367414  )
        33           C   tau(  33) = (  -0.0183387   1.9987571   5.7526965  )
        34           C   tau(  34) = (   0.4282837   0.9949341   6.3647035  )
        35           C   tau(  35) = (   0.5789202   0.8483148   6.6461436  )
        36           C   tau(  36) = (   0.6582210   1.0542924   6.9353944  )
        37           C   tau(  37) = (   0.5824520   1.3978627   6.9401277  )
        38           C   tau(  38) = (   0.3374397   1.9138201   6.6453710  )
        39           C   tau(  39) = (   0.1976136   1.5011789   6.0708330  )
        40           C   tau(  40) = (   0.2013429   2.0674536   6.3454138  )
        41           C   tau(  41) = (   0.1278326   1.8516835   6.0534797  )
        42           C   tau(  42) = (   0.3469965   1.3509872   6.3589922  )
        43           C   tau(  43) = (   0.4194192   1.5599808   6.6557419  )
        44           C   tau(  44) = (   0.3880768   2.1270532   6.9573889  )
        45           H   tau(  45) = (   0.3045527   2.1530638   7.4478418  )
        46           H   tau(  46) = (   0.1706352   2.5913943   6.5330324  )
        47           H   tau(  47) = (  -0.0817625   2.8271868   6.0105062  )
        48           H   tau(  48) = (  -0.2039221   2.4515252   5.5065530  )
        49           H   tau(  49) = (  -0.0716091   1.8305078   5.5358725  )
        50           H   tau(  50) = (   0.3677522   0.8422138   6.1384831  )
        51           H   tau(  51) = (   0.6396684   0.5760153   6.6492938  )
        52           H   tau(  52) = (   0.7829531   0.9378553   7.1560452  )
        53           H   tau(  53) = (   0.6509927   1.5491919   7.1634325  )
        54           H   tau(  54) = (   0.1382442   1.3397772   5.8505788  )
        55           O   tau(  55) = (   0.7397134   1.5737023   3.5635163  )
        56           O   tau(  56) = (   1.0377485   1.1693385   3.2778039  )
        57           C   tau(  57) = (   0.6118840   1.1507268   2.6415302  )
        58           C   tau(  58) = (   0.4711123   1.0189337   2.3471017  )
        59           C   tau(  59) = (   0.4007346   1.2318336   2.0608113  )
        60           C   tau(  60) = (   0.4732911   1.5749878   2.0767625  )
        61           C   tau(  61) = (   0.9198941   2.5788281   2.6887480  )
        62           C   tau(  62) = (   1.0705142   2.7254579   2.9701997  )
        63           C   tau(  63) = (   1.1498094   2.5194861   3.2594495  )
        64           C   tau(  64) = (   1.0740533   2.1759193   3.2641911  )
        65           C   tau(  65) = (   0.8290560   1.6599466   2.9694383  )
        66           C   tau(  66) = (   0.6892392   2.0725759   2.3948940  )
        67           C   tau(  67) = (   0.6929689   1.5063018   2.6694886  )
        68           C   tau(  68) = (   0.6194588   1.7220593   2.3775433  )
        69           C   tau(  69) = (   0.8386080   2.2227700   2.6830439  )
        70           C   tau(  70) = (   0.9110269   2.0137952   2.9798047  )
        71           C   tau(  71) = (   0.8796908   1.4467257   3.2814585  )
        72           H   tau(  72) = (   0.7961538   1.4207158   3.7719117  )
        73           H   tau(  73) = (   0.6622541   0.9823575   2.8571149  )
        74           H   tau(  74) = (   0.4098684   0.7465625   2.3345817  )
        75           H   tau(  75) = (   0.2877107   1.1222195   1.8306208  )
        76           H   tau(  76) = (   0.4200182   1.7432440   1.8599382  )
        77           H   tau(  77) = (   0.8593586   2.7315433   2.4625320  )
        78           H   tau(  78) = (   1.1312539   2.9977565   2.9733418  )
        79           H   tau(  79) = (   1.2745360   2.6359327   3.4801060  )
        80           H   tau(  80) = (   1.1425819   2.0245964   3.4875037  )
        81           H   tau(  81) = (   0.6298698   2.2339643   2.1746287  )
        82           O   tau(  82) = (   0.6913668   0.3824816   0.1326603  )
        83           O   tau(  83) = (   0.3933286  -0.0218818   0.4183615  )
        84           C   tau(  84) = (   0.8191534  -0.0404803   1.0546364  )
        85           C   tau(  85) = (   0.9599295  -0.1722776   1.3490782  )
        86           C   tau(  86) = (   1.0302930   0.0406181   1.6353641  )
        87           C   tau(  87) = (   0.9577225   0.3837759   1.6194221  )
        88           C   tau(  88) = (   0.5111317   1.3876155   1.0074052  )
        89           C   tau(  89) = (   0.3605253   1.5342397   0.7259529  )
        90           C   tau(  90) = (   0.2812339   1.3282594   0.4366950  )
        91           C   tau(  91) = (   0.3569913   0.9846948   0.4319749  )
        92           C   tau(  92) = (   0.6019883   0.4687221   0.7267375  )
        93           C   tau(  93) = (   0.7417713   0.8813672   1.3012828  )
        94           C   tau(  94) = (   0.7380612   0.3150957   1.0266915  )
        95           C   tau(  95) = (   0.8115561   0.5308439   1.3186369  )
        96           C   tau(  96) = (   0.5924133   1.0315511   1.0131308  )
        97           C   tau(  97) = (   0.5199981   0.8225801   0.7163610  )
        98           C   tau(  98) = (   0.5513778   0.2555020   0.4147099  )
        99           H   tau(  99) = (   0.6349346   0.2294944  -0.0757387  )
       100           H   tau( 100) = (   0.7687910  -0.2088436   0.8390614  )
       101           H   tau( 101) = (   1.0211776  -0.4446424   1.3615835  )
       102           H   tau( 102) = (   1.1433246  -0.0689925   1.8655503  )
       103           H   tau( 103) = (   1.0109798   0.5520221   1.8362492  )
       104           H   tau( 104) = (   0.5716593   1.5403349   1.2336296  )
       105           H   tau( 105) = (   0.2997979   1.8065403   0.7227897  )
       106           H   tau( 106) = (   0.1565172   1.4447056   0.2160337  )
       107           H   tau( 107) = (   0.2884609   0.8333622   0.2086586  )
       108           H   tau( 108) = (   0.8011208   1.0427524   1.5215539  )

   Crystallographic axes

     site n.     atom                  positions (cryst. coord.)
         1           O   tau(   1) = (  0.2196061  0.3395055  0.5170389  )
         2           O   tau(   2) = ( -0.0895582  0.5092315  0.5562680  )
         3           C   tau(   3) = (  0.3553833  0.5170336  0.6420904  )
         4           C   tau(   4) = (  0.5027343  0.5723496  0.6818835  )
         5           C   tau(   5) = (  0.5768249  0.4829840  0.7206682  )
         6           C   tau(   6) = (  0.5012957  0.3389492  0.7186036  )
         7           C   tau(   7) = (  0.0348238 -0.0823944  0.6361076  )
         8           C   tau(   8) = ( -0.1227426 -0.1439353  0.5980919  )
         9           C   tau(   9) = ( -0.2061238 -0.0574742  0.5589167  )
        10           C   tau(  10) = ( -0.1273179  0.0867341  0.5581670  )
        11           C   tau(  11) = (  0.1284661  0.3033028  0.5978582  )
        12           C   tau(  12) = (  0.2756643  0.1300943  0.6756970  )
        13           C   tau(  13) = (  0.2709411  0.3677856  0.6384074  )
        14           C   tau(  14) = (  0.3483075  0.2772214  0.6779570  )
        15           C   tau(  15) = (  0.1193938  0.0670582  0.6367697  )
        16           C   tau(  16) = (  0.0431449  0.1547789  0.5965642  )
        17           C   tau(  17) = (  0.0748555  0.3928021  0.5555479  )
        18           H   tau(  18) = (  0.1602601  0.4037214  0.4888131  )
        19           H   tau(  19) = (  0.3023120  0.5877068  0.6128814  )
        20           H   tau(  20) = (  0.5664866  0.6866712  0.6834968  )
        21           H   tau(  21) = (  0.6951230  0.5289905  0.7517736  )
        22           H   tau(  22) = (  0.5573674  0.2683278  0.7479794  )
        23           H   tau(  23) = (  0.0984808 -0.1464987  0.6667484  )
        24           H   tau(  24) = ( -0.1859300 -0.2582299  0.5977490  )
        25           H   tau(  25) = ( -0.3365569 -0.1063464  0.5291219  )
        26           H   tau(  26) = ( -0.1993066  0.1502570  0.5279337  )
        27           H   tau(  27) = (  0.3380922  0.0623513  0.7055312  )
        28           O   tau(  28) = (  0.2805602  0.8395032  0.9829748  )
        29           O   tau(  29) = (  0.5896982  1.0092307  0.9437423  )
        30           C   tau(  30) = (  0.1447090  1.0170323  0.8579232  )
        31           C   tau(  31) = ( -0.0026496  1.0723512  0.8181317  )
        32           C   tau(  32) = ( -0.0767532  0.9829884  0.7793460  )
        33           C   tau(  33) = ( -0.0012240  0.8389515  0.7814100  )
        34           C   tau(  34) = (  0.4652713  0.4176091  0.8639029  )
        35           C   tau(  35) = (  0.6228441  0.3560675  0.9019163  )
        36           C   tau(  36) = (  0.7062354  0.4425242  0.9410921  )
        37           C   tau(  37) = (  0.6274325  0.5867337  0.9418429  )
        38           C   tau(  38) = (  0.3716451  0.8033005  0.9021549  )
        39           C   tau(  39) = (  0.2244062  0.6300992  0.8243149  )
        40           C   tau(  40) = (  0.2291399  0.8677862  0.8616056  )
        41           C   tau(  41) = (  0.1517639  0.7772192  0.8220571  )
        42           C   tau(  42) = (  0.3806957  0.5670581  0.8632428  )
        43           C   tau(  43) = (  0.4569553  0.6547807  0.9034470  )
        44           C   tau(  44) = (  0.4252895  0.8928025  0.9444640  )
        45           H   tau(  45) = (  0.3399245  0.9037197  1.0112006  )
        46           H   tau(  46) = (  0.1977804  1.0877040  0.8871334  )
        47           H   tau(  47) = ( -0.0663974  1.1866750  0.8165182  )
        48           H   tau(  48) = ( -0.1950396  1.0289954  0.7482405  )
        49           H   tau(  49) = ( -0.0573121  0.7683309  0.7520347  )
        50           H   tau(  50) = (  0.4016007  0.3535066  0.8332617  )
        51           H   tau(  51) = (  0.6860462  0.2417731  0.9022578  )
        52           H   tau(  52) = (  0.8366725  0.3936512  0.9708855  )
        53           H   tau(  53) = (  0.6994257  0.6502524  0.9720766  )
        54           H   tau(  54) = (  0.1619629  0.5623527  0.7944825  )
        55           O   tau(  55) = (  0.7805517  0.6605427  0.4829767  )
        56           O   tau(  56) = (  1.0896963  0.4908165  0.4437445  )
        57           C   tau(  57) = (  0.6447147  0.4830039  0.3579260  )
        58           C   tau(  58) = (  0.4973622  0.4276852  0.3181344  )
        59           C   tau(  59) = (  0.4232643  0.5170475  0.2793479  )
        60           C   tau(  60) = (  0.4987928  0.6610826  0.2814113  )
        61           C   tau(  61) = (  0.9652769  1.0824335  0.3639011  )
        62           C   tau(  62) = (  1.1228340  1.1439799  0.4019161  )
        63           C   tau(  63) = (  1.2062176  1.0575256  0.4410918  )
        64           C   tau(  64) = (  1.1274251  0.9133173  0.4418437  )
        65           C   tau(  65) = (  0.8716486  0.6967433  0.4021564  )
        66           C   tau(  66) = (  0.7244231  0.8699398  0.3243154  )
        67           C   tau(  67) = (  0.7291521  0.6322526  0.3616081  )
        68           C   tau(  68) = (  0.6517782  0.7228143  0.3220580  )
        69           C   tau(  69) = (  0.8806993  0.9329821  0.3632420  )
        70           C   tau(  70) = (  0.9569530  0.8452674  0.4034478  )
        71           C   tau(  71) = (  0.9252886  0.6072463  0.4444658  )
        72           H   tau(  72) = (  0.8399099  0.5963284  0.5112025  )
        73           H   tau(  73) = (  0.6977804  0.4123329  0.3871370  )
        74           H   tau(  74) = (  0.4336129  0.3133604  0.3165210  )
        75           H   tau(  75) = (  0.3049761  0.4710381  0.2482422  )
        76           H   tau(  76) = (  0.4427036  0.7317062  0.2520360  )
        77           H   tau(  77) = (  0.9016035  1.1465340  0.3332605  )
        78           H   tau(  78) = (  1.1860299  1.2582742  0.4022564  )
        79           H   tau(  79) = (  1.3366501  1.1064029  0.4708859  )
        80           H   tau(  80) = (  1.1994043  0.8498012  0.4720786  )
        81           H   tau(  81) = (  0.6619812  0.9376806  0.2944815  )
        82           O   tau(  82) = (  0.7196116  0.1605437  0.0170352  )
        83           O   tau(  83) = (  0.4104599 -0.0091840  0.0562660  )
        84           C   tau(  84) = (  0.8554001 -0.0169900  0.1420847  )
        85           C   tau(  85) = (  1.0027560 -0.0723102  0.1818782  )
        86           C   tau(  86) = (  1.0768410  0.0170503  0.2206640  )
        87           C   tau(  87) = (  1.0013013  0.1610866  0.2186018  )
        88           C   tau(  88) = (  0.5348388  0.5824360  0.1361075  )
        89           C   tau(  89) = (  0.3772973  0.6439796  0.0980924  )
        90           C   tau(  90) = (  0.2939158  0.5575218  0.0589156  )
        91           C   tau(  91) = (  0.3727066  0.4133147  0.0581667  )
        92           C   tau(  92) = (  0.6284781  0.1967415  0.0978554  )
        93           C   tau(  93) = (  0.7756722  0.3699445  0.1756965  )
        94           C   tau(  94) = (  0.7709584  0.1322588  0.1384043  )
        95           C   tau(  95) = (  0.8483185  0.2228166  0.1779544  )
        96           C   tau(  96) = (  0.6194086  0.4329823  0.1367696  )
        97           C   tau(  97) = (  0.5431568  0.3452692  0.0965627  )
        98           C   tau(  98) = (  0.5748614  0.1072450  0.0555450  )
        99           H   tau(  99) = (  0.6602605  0.0963290 -0.0111911  )
       100           H   tau( 100) = (  0.8023409 -0.0876585  0.1128750  )
       101           H   tau( 101) = (  1.0665072 -0.1866320  0.1834896  )
       102           H   tau( 102) = (  1.1951363 -0.0289574  0.2517691  )
       103           H   tau( 103) = (  1.0573758  0.2317060  0.2479775  )
       104           H   tau( 104) = (  0.5985055  0.6465382  0.1667492  )
       105           H   tau( 105) = (  0.3141167  0.7582745  0.0977491  )
       106           H   tau( 106) = (  0.1634947  0.6063986  0.0291208  )
       107           H   tau( 107) = (  0.3007241  0.3497946  0.0279313  )
       108           H   tau( 108) = (  0.8380949  0.4376840  0.2055313  )

     number of k points=    11
                       cart. coord. in units 2pi/alat
        k(    1) = (   0.0750159   0.0699568  -0.0676931), wk =   0.1904762
        k(    2) = (   0.0750144  -0.2098688  -0.0676927), wk =   0.1904762
        k(    3) = (   0.0750151  -0.0699560  -0.0676929), wk =   0.1904762
        k(    4) = (   0.2236238   0.0699574  -0.0672500), wk =   0.1904762
        k(    5) = (   0.2236224  -0.2098682  -0.0672496), wk =   0.1904762
        k(    6) = (   0.2236231  -0.0699554  -0.0672498), wk =   0.1904762
        k(    7) = (   0.3722318   0.0699581  -0.0668069), wk =   0.1904762
        k(    8) = (   0.3722303  -0.2098675  -0.0668065), wk =   0.1904762
        k(    9) = (   0.3722311  -0.0699547  -0.0668067), wk =   0.1904762
        k(   10) = (  -0.5194160   0.0699542  -0.0694656), wk =   0.1904762
        k(   11) = (  -0.5194174  -0.2098714  -0.0694652), wk =   0.0952381

                       cryst. coord.
        k(    1) = (   0.0714286   0.1666667  -0.5000000), wk =   0.1904762
        k(    2) = (   0.0714286  -0.5000000  -0.5000000), wk =   0.1904762
        k(    3) = (   0.0714286  -0.1666667  -0.5000000), wk =   0.1904762
        k(    4) = (   0.2142857   0.1666667  -0.5000000), wk =   0.1904762
        k(    5) = (   0.2142857  -0.5000000  -0.5000000), wk =   0.1904762
        k(    6) = (   0.2142857  -0.1666667  -0.5000000), wk =   0.1904762
        k(    7) = (   0.3571429   0.1666667  -0.5000000), wk =   0.1904762
        k(    8) = (   0.3571429  -0.5000000  -0.5000000), wk =   0.1904762
        k(    9) = (   0.3571429  -0.1666667  -0.5000000), wk =   0.1904762
        k(   10) = (  -0.5000000   0.1666667  -0.5000000), wk =   0.1904762
        k(   11) = (  -0.5000000  -0.5000000  -0.5000000), wk =   0.0952381

     Dense  grid:  1271653 G-vectors     FFT dimensions: (  54, 125, 400)

     Smooth grid:   321535 G-vectors     FFT dimensions: (  32,  80, 250)

     Dynamical RAM for                 wfc:       3.14 MB

     Dynamical RAM for     wfc (w. buffer):      37.72 MB

     Dynamical RAM for           str. fact:       3.64 MB

     Dynamical RAM for           local pot:       0.00 MB

     Dynamical RAM for          nlocal pot:      11.96 MB

     Dynamical RAM for                qrad:       7.21 MB

     Dynamical RAM for          rho,v,vnew:       7.65 MB

     Dynamical RAM for               rhoin:       2.55 MB

     Dynamical RAM for            rho*nmix:      19.40 MB

     Dynamical RAM for           G-vectors:       2.35 MB

     Dynamical RAM for          h,s,v(r/c):       0.79 MB

     Dynamical RAM for          <psi|beta>:       1.56 MB

     Dynamical RAM for                 psi:      12.57 MB

     Dynamical RAM for                hpsi:      12.57 MB

     Dynamical RAM for                spsi:      12.57 MB

     Dynamical RAM for      wfcinit/wfcrot:      14.19 MB

     Dynamical RAM for           addusdens:      62.44 MB

     Dynamical RAM for          addusforce:     221.66 MB

     Dynamical RAM for         addusstress:      30.31 MB

     Estimated static dynamical RAM per process >     100.07 MB

     Estimated max dynamical RAM per process >     321.73 MB

     Estimated total dynamical RAM >      10.05 GB

     Initial potential from superposition of free atoms

     starting charge  327.99715, renormalised to  328.00000
     Starting wfcs are  312 randomized atomic wfcs
     Checking if some PAW data can be deallocated... 
       PAW data deallocated on   18 nodes for type:  1
       PAW data deallocated on   11 nodes for type:  2
       PAW data deallocated on   27 nodes for type:  3
       PAW data deallocated on   32 nodes for type:  4
       PAW data deallocated on   32 nodes for type:  5
       PAW data deallocated on   32 nodes for type:  6

     total cpu time spent up to now is       31.5 secs

     Self-consistent Calculation

     iteration #  1     ecut=    50.00 Ry     beta= 0.50
     Davidson diagonalization with overlap
     ethr =  1.00E-02,  avg # of iterations =  4.0

     total cpu time spent up to now is       51.5 secs

     total energy              =   -1490.46119205 Ry
     Harris-Foulkes estimate   =   -1496.60724227 Ry
     estimated scf accuracy    <      11.63263570 Ry

     iteration #  2     ecut=    50.00 Ry     beta= 0.50
     Davidson diagonalization with overlap
     ethr =  3.55E-03,  avg # of iterations =  2.0

     total cpu time spent up to now is       62.4 secs

     total energy              =   -1490.00360956 Ry
     Harris-Foulkes estimate   =   -1491.13539972 Ry
     estimated scf accuracy    <       1.93772370 Ry

     iteration #  3     ecut=    50.00 Ry     beta= 0.50
     Davidson diagonalization with overlap
     ethr =  5.91E-04,  avg # of iterations =  5.4

     total cpu time spent up to now is       86.5 secs

     total energy              =   -1492.56203431 Ry
     Harris-Foulkes estimate   =   -1493.83450506 Ry
     estimated scf accuracy    <       5.11986386 Ry

     iteration #  4     ecut=    50.00 Ry     beta= 0.50
     Davidson diagonalization with overlap
     ethr =  5.91E-04,  avg # of iterations =  1.0

     total cpu time spent up to now is       96.7 secs

     total energy              =   -1489.99989666 Ry
     Harris-Foulkes estimate   =   -1492.60035648 Ry
     estimated scf accuracy    <       3.21005668 Ry

     iteration #  5     ecut=    50.00 Ry     beta= 0.50
     Davidson diagonalization with overlap
     c_bands:  1 eigenvalues not converged
     c_bands:  4 eigenvalues not converged
     c_bands:  1 eigenvalues not converged
     c_bands:  4 eigenvalues not converged
     c_bands:  3 eigenvalues not converged
     c_bands:  2 eigenvalues not converged
     c_bands:  4 eigenvalues not converged
     c_bands:  5 eigenvalues not converged
     c_bands:  1 eigenvalues not converged
     ethr =  5.91E-04,  avg # of iterations = 24.2

     total cpu time spent up to now is      142.1 secs

     total energy              =   -1500.67211961 Ry
     Harris-Foulkes estimate   =   -1500.76322653 Ry
     estimated scf accuracy    <      85.72760738 Ry

     iteration #  6     ecut=    50.00 Ry     beta= 0.50
     Davidson diagonalization with overlap
     c_bands:  2 eigenvalues not converged
     c_bands:  2 eigenvalues not converged
     ethr =  5.91E-04,  avg # of iterations =  4.5

     total cpu time spent up to now is      155.2 secs

     total energy              =   -1500.93968697 Ry
     Harris-Foulkes estimate   =   -1500.71768699 Ry
     estimated scf accuracy    <      85.83367015 Ry

     iteration #  7     ecut=    50.00 Ry     beta= 0.50
     Davidson diagonalization with overlap
     ethr =  5.91E-04,  avg # of iterations =  1.4

     total cpu time spent up to now is      165.8 secs

     total energy              =   -1497.21164027 Ry
     Harris-Foulkes estimate   =   -1500.94504408 Ry
     estimated scf accuracy    <      86.17003559 Ry

     iteration #  8     ecut=    50.00 Ry     beta= 0.50
     Davidson diagonalization with overlap
     c_bands:  1 eigenvalues not converged
     c_bands:  2 eigenvalues not converged
     c_bands:  2 eigenvalues not converged
     c_bands:  3 eigenvalues not converged
     c_bands:  3 eigenvalues not converged
     c_bands:  1 eigenvalues not converged
     c_bands:  2 eigenvalues not converged
     c_bands:  1 eigenvalues not converged
     c_bands:  1 eigenvalues not converged
     ethr =  5.91E-04,  avg # of iterations = 19.8

     total cpu time spent up to now is      199.3 secs

     total energy              =   -1499.94854633 Ry
     Harris-Foulkes estimate   =   -1499.99584509 Ry
     estimated scf accuracy    <     107.01794930 Ry

     iteration #  9     ecut=    50.00 Ry     beta= 0.50
     Davidson diagonalization with overlap
     c_bands:  1 eigenvalues not converged
     ethr =  5.91E-04,  avg # of iterations =  9.9

     total cpu time spent up to now is      216.4 secs

     total energy              =   -1500.02430004 Ry
     Harris-Foulkes estimate   =   -1500.01335374 Ry
     estimated scf accuracy    <     108.54726266 Ry

     iteration # 10     ecut=    50.00 Ry     beta= 0.50
     Davidson diagonalization with overlap
     ethr =  5.91E-04,  avg # of iterations =  1.2

     total cpu time spent up to now is      226.8 secs

     total energy              =   -1502.26268011 Ry
     Harris-Foulkes estimate   =   -1500.03147075 Ry
     estimated scf accuracy    <     108.63131762 Ry

     iteration # 11     ecut=    50.00 Ry     beta= 0.50
     Davidson diagonalization with overlap
     ethr =  5.91E-04,  avg # of iterations =  1.8

     total cpu time spent up to now is      237.7 secs

     total energy              =   -1494.50055511 Ry
     Harris-Foulkes estimate   =   -1502.28636407 Ry
     estimated scf accuracy    <     111.98795474 Ry

     iteration # 12     ecut=    50.00 Ry     beta= 0.50
     Davidson diagonalization with overlap
     ethr =  5.91E-04,  avg # of iterations = 14.4

     total cpu time spent up to now is      264.9 secs

     total energy              =   -1496.74547187 Ry
     Harris-Foulkes estimate   =   -1496.62043766 Ry
     estimated scf accuracy    <      94.84295996 Ry

     iteration # 13     ecut=    50.00 Ry     beta= 0.50
     Davidson diagonalization with overlap
     ethr =  5.91E-04,  avg # of iterations =  1.0

     negative rho (up, down):  4.382E+01 0.000E+00

     total cpu time spent up to now is      275.2 secs

     total energy              =   -1672.90488376 Ry
     Harris-Foulkes estimate   =   -1496.76840343 Ry
     estimated scf accuracy    <      95.04570429 Ry

     iteration # 14     ecut=    50.00 Ry     beta= 0.50
     Davidson diagonalization with overlap
     ethr =  5.91E-04,  avg # of iterations = 32.8

     negative rho (up, down):  1.805E-03 0.000E+00

     total cpu time spent up to now is      384.0 secs

     total energy              =   -1255.53662523 Ry
     Harris-Foulkes estimate   =   -2735.05871444 Ry
     estimated scf accuracy    <   14905.15029813 Ry

     iteration # 15     ecut=    50.00 Ry     beta= 0.50
     Davidson diagonalization with overlap
     c_bands:  3 eigenvalues not converged
     c_bands:  4 eigenvalues not converged
     c_bands:  2 eigenvalues not converged
     c_bands:  3 eigenvalues not converged
     c_bands:  4 eigenvalues not converged
     c_bands:  3 eigenvalues not converged
     c_bands:  1 eigenvalues not converged
     c_bands:  2 eigenvalues not converged
     c_bands:  2 eigenvalues not converged
     ethr =  5.91E-04,  avg # of iterations = 35.1

     total cpu time spent up to now is      471.7 secs

     total energy              =   -1285.51748688 Ry
     Harris-Foulkes estimate   =   -1746.38444080 Ry
     estimated scf accuracy    <   10304.16619491 Ry

     iteration # 16     ecut=    50.00 Ry     beta= 0.50
     Davidson diagonalization with overlap
     c_bands:  1 eigenvalues not converged
     c_bands:  1 eigenvalues not converged
     ethr =  5.91E-04,  avg # of iterations = 20.0

     total cpu time spent up to now is      539.3 secs

     total energy              =   -1480.91546032 Ry
     Harris-Foulkes estimate   =   -1503.41559078 Ry
     estimated scf accuracy    <     117.99209686 Ry

     iteration # 17     ecut=    50.00 Ry     beta= 0.50
     Davidson diagonalization with overlap
     ethr =  5.91E-04,  avg # of iterations = 15.2

     total cpu time spent up to now is      585.5 secs

     total energy              =   -1477.08080953 Ry
     Harris-Foulkes estimate   =   -1501.76823458 Ry
     estimated scf accuracy    <     357.96033487 Ry

     iteration # 18     ecut=    50.00 Ry     beta= 0.50
     Davidson diagonalization with overlap
     ethr =  5.91E-04,  avg # of iterations = 13.7

     total cpu time spent up to now is      627.0 secs

     total energy              =   -1491.32683527 Ry
     Harris-Foulkes estimate   =   -1494.01964774 Ry
     estimated scf accuracy    <      37.33327756 Ry

     iteration # 19     ecut=    50.00 Ry     beta= 0.50
     Davidson diagonalization with overlap
     c_bands:  3 eigenvalues not converged
     c_bands:  4 eigenvalues not converged
     c_bands:  4 eigenvalues not converged
     c_bands:  2 eigenvalues not converged
     c_bands:  2 eigenvalues not converged
     c_bands:  2 eigenvalues not converged
     c_bands:  2 eigenvalues not converged
     c_bands:  1 eigenvalues not converged
     c_bands:  2 eigenvalues not converged
     c_bands:  1 eigenvalues not converged
     c_bands:  1 eigenvalues not converged
     ethr =  5.91E-04,  avg # of iterations = 20.0

     total cpu time spent up to now is      654.5 secs

     total energy              =   -1491.90192275 Ry
     Harris-Foulkes estimate   =   -1492.37172665 Ry
     estimated scf accuracy    <       7.19742984 Ry

     iteration # 20     ecut=    50.00 Ry     beta= 0.50
     Davidson diagonalization with overlap
     c_bands:  1 eigenvalues not converged
     c_bands:  1 eigenvalues not converged
     c_bands:  1 eigenvalues not converged
     c_bands:  1 eigenvalues not converged
     c_bands:  2 eigenvalues not converged
     c_bands:  2 eigenvalues not converged
     c_bands:  1 eigenvalues not converged
     ethr =  5.91E-04,  avg # of iterations = 15.5

     negative rho (up, down):  3.080E-07 0.000E+00

     total cpu time spent up to now is      676.5 secs

     total energy              =   -1492.00329356 Ry
     Harris-Foulkes estimate   =   -1492.24191886 Ry
     estimated scf accuracy    <       1.91545446 Ry

     iteration # 21     ecut=    50.00 Ry     beta= 0.50
     Davidson diagonalization with overlap
     ethr =  5.84E-04,  avg # of iterations =  9.3

     total cpu time spent up to now is      693.8 secs

     total energy              =   -1492.08582280 Ry
     Harris-Foulkes estimate   =   -1492.18325640 Ry
     estimated scf accuracy    <       1.32247054 Ry

     iteration # 22     ecut=    50.00 Ry     beta= 0.50
     Davidson diagonalization with overlap
     ethr =  4.03E-04,  avg # of iterations =  7.0

     total cpu time spent up to now is      708.8 secs

     total energy              =   -1492.01022675 Ry
     Harris-Foulkes estimate   =   -1492.15917760 Ry
     estimated scf accuracy    <       0.99328157 Ry

     iteration # 23     ecut=    50.00 Ry     beta= 0.50
     Davidson diagonalization with overlap
     ethr =  3.03E-04,  avg # of iterations =  7.8

     total cpu time spent up to now is      731.2 secs

     total energy              =   -1492.24455633 Ry
     Harris-Foulkes estimate   =   -1492.47474287 Ry
     estimated scf accuracy    <       0.80505482 Ry

     iteration # 24     ecut=    50.00 Ry     beta= 0.50
     Davidson diagonalization with overlap
     ethr =  2.45E-04,  avg # of iterations =  2.0

     total cpu time spent up to now is      742.3 secs

     total energy              =   -1492.13432060 Ry
     Harris-Foulkes estimate   =   -1492.26882258 Ry
     estimated scf accuracy    <       0.45066577 Ry

     iteration # 25     ecut=    50.00 Ry     beta= 0.50
     Davidson diagonalization with overlap
     ethr =  1.37E-04,  avg # of iterations =  8.0

     total cpu time spent up to now is      761.0 secs

     total energy              =   -1492.23821592 Ry
     Harris-Foulkes estimate   =   -1492.30352117 Ry
     estimated scf accuracy    <       0.21573618 Ry

     iteration # 26     ecut=    50.00 Ry     beta= 0.50
     Davidson diagonalization with overlap
     ethr =  6.58E-05,  avg # of iterations =  8.7

     total cpu time spent up to now is      779.9 secs

     total energy              =   -1492.26474602 Ry
     Harris-Foulkes estimate   =   -1492.28485340 Ry
     estimated scf accuracy    <       0.04980530 Ry

     iteration # 27     ecut=    50.00 Ry     beta= 0.50
     Davidson diagonalization with overlap
     ethr =  1.52E-05,  avg # of iterations =  5.8

     total cpu time spent up to now is      803.6 secs

     total energy              =   -1492.28299170 Ry
     Harris-Foulkes estimate   =   -1492.29290055 Ry
     estimated scf accuracy    <       0.02743144 Ry

     iteration # 28     ecut=    50.00 Ry     beta= 0.50
     Davidson diagonalization with overlap
     ethr =  8.36E-06,  avg # of iterations =  9.2

     total cpu time spent up to now is      821.5 secs

     total energy              =   -1492.28504243 Ry
     Harris-Foulkes estimate   =   -1492.28727368 Ry
     estimated scf accuracy    <       0.00800581 Ry

     iteration # 29     ecut=    50.00 Ry     beta= 0.50
     Davidson diagonalization with overlap
     ethr =  2.44E-06,  avg # of iterations =  6.3

     total cpu time spent up to now is      842.2 secs

     total energy              =   -1492.28748539 Ry
     Harris-Foulkes estimate   =   -1492.28901695 Ry
     estimated scf accuracy    <       0.00831243 Ry

     iteration # 30     ecut=    50.00 Ry     beta= 0.50
     Davidson diagonalization with overlap
     ethr =  2.44E-06,  avg # of iterations =  8.5

     total cpu time spent up to now is      858.2 secs

     total energy              =   -1492.28726204 Ry
     Harris-Foulkes estimate   =   -1492.28784232 Ry
     estimated scf accuracy    <       0.00328764 Ry

     iteration # 31     ecut=    50.00 Ry     beta= 0.50
     Davidson diagonalization with overlap
     ethr =  1.00E-06,  avg # of iterations =  8.3

     total cpu time spent up to now is     1005.4 secs

     total energy              =   -1492.28721374 Ry
     Harris-Foulkes estimate   =   -1492.28783424 Ry
     estimated scf accuracy    <       0.00148886 Ry

     iteration # 32     ecut=    50.00 Ry     beta= 0.50
     Davidson diagonalization with overlap
     ethr =  4.54E-07,  avg # of iterations =  6.3

     total cpu time spent up to now is     1028.1 secs

     total energy              =   -1492.28756477 Ry
     Harris-Foulkes estimate   =   -1492.28814875 Ry
     estimated scf accuracy    <       0.00230977 Ry

     iteration # 33     ecut=    50.00 Ry     beta= 0.50
     Davidson diagonalization with overlap
     ethr =  4.54E-07,  avg # of iterations =  8.6

     total cpu time spent up to now is     1044.8 secs

     total energy              =   -1492.28755739 Ry
     Harris-Foulkes estimate   =   -1492.28771212 Ry
     estimated scf accuracy    <       0.00042604 Ry

     iteration # 34     ecut=    50.00 Ry     beta= 0.50
     Davidson diagonalization with overlap
     ethr =  1.30E-07,  avg # of iterations =  6.0

     total cpu time spent up to now is     1067.8 secs

     total energy              =   -1492.28776698 Ry
     Harris-Foulkes estimate   =   -1492.28783771 Ry
     estimated scf accuracy    <       0.00030155 Ry

     iteration # 35     ecut=    50.00 Ry     beta= 0.50
     Davidson diagonalization with overlap
     ethr =  9.19E-08,  avg # of iterations =  2.7

     total cpu time spent up to now is     1079.5 secs

     total energy              =   -1492.28771508 Ry
     Harris-Foulkes estimate   =   -1492.28777444 Ry
     estimated scf accuracy    <       0.00017510 Ry

     iteration # 36     ecut=    50.00 Ry     beta= 0.50
     Davidson diagonalization with overlap
     ethr =  5.34E-08,  avg # of iterations =  6.2

     total cpu time spent up to now is     1104.2 secs

     total energy              =   -1492.28777814 Ry
     Harris-Foulkes estimate   =   -1492.28778895 Ry
     estimated scf accuracy    <       0.00005779 Ry

     iteration # 37     ecut=    50.00 Ry     beta= 0.50
     Davidson diagonalization with overlap
     ethr =  1.76E-08,  avg # of iterations =  1.9

     total cpu time spent up to now is     1251.9 secs

     total energy              =   -1492.28776016 Ry
     Harris-Foulkes estimate   =   -1492.28777962 Ry
     estimated scf accuracy    <       0.00004108 Ry

     iteration # 38     ecut=    50.00 Ry     beta= 0.50
     Davidson diagonalization with overlap
     ethr =  1.25E-08,  avg # of iterations =  6.7

     total cpu time spent up to now is     1272.3 secs

     total energy              =   -1492.28778178 Ry
     Harris-Foulkes estimate   =   -1492.28778702 Ry
     estimated scf accuracy    <       0.00005124 Ry

     iteration # 39     ecut=    50.00 Ry     beta= 0.50
     Davidson diagonalization with overlap
     ethr =  1.25E-08,  avg # of iterations =  1.0

     total cpu time spent up to now is     1282.6 secs

     total energy              =   -1492.28776757 Ry
     Harris-Foulkes estimate   =   -1492.28778217 Ry
     estimated scf accuracy    <       0.00004301 Ry

     iteration # 40     ecut=    50.00 Ry     beta= 0.50
     Davidson diagonalization with overlap
     ethr =  1.25E-08,  avg # of iterations =  8.4

     total cpu time spent up to now is     1301.0 secs

     total energy              =   -1492.28777748 Ry
     Harris-Foulkes estimate   =   -1492.28777974 Ry
     estimated scf accuracy    <       0.00000819 Ry

     iteration # 41     ecut=    50.00 Ry     beta= 0.50
     Davidson diagonalization with overlap
     ethr =  2.50E-09,  avg # of iterations = 10.0

     total cpu time spent up to now is     1319.9 secs

     total energy              =   -1492.28777854 Ry
     Harris-Foulkes estimate   =   -1492.28777884 Ry
     estimated scf accuracy    <       0.00000099 Ry

     iteration # 42     ecut=    50.00 Ry     beta= 0.50
     Davidson diagonalization with overlap
     ethr =  3.02E-10,  avg # of iterations =  5.5

     total cpu time spent up to now is     1342.6 secs

     total energy              =   -1492.28777920 Ry
     Harris-Foulkes estimate   =   -1492.28777929 Ry
     estimated scf accuracy    <       0.00000019 Ry

     iteration # 43     ecut=    50.00 Ry     beta= 0.50
     Davidson diagonalization with overlap
     ethr =  5.67E-11,  avg # of iterations =  8.4

     total cpu time spent up to now is     1368.2 secs

     total energy              =   -1492.28777940 Ry
     Harris-Foulkes estimate   =   -1492.28777967 Ry
     estimated scf accuracy    <       0.00000258 Ry

     iteration # 44     ecut=    50.00 Ry     beta= 0.50
     Davidson diagonalization with overlap
     ethr =  5.67E-11,  avg # of iterations = 10.9

     total cpu time spent up to now is     1387.4 secs

     total energy              =   -1492.28777911 Ry
     Harris-Foulkes estimate   =   -1492.28777943 Ry
     estimated scf accuracy    <       0.00000145 Ry

     iteration # 45     ecut=    50.00 Ry     beta= 0.50
     Davidson diagonalization with overlap
     ethr =  5.67E-11,  avg # of iterations =  6.3

     total cpu time spent up to now is     1410.6 secs

     total energy              =   -1492.28777928 Ry
     Harris-Foulkes estimate   =   -1492.28777929 Ry
     estimated scf accuracy    <       0.00000003 Ry

     iteration # 46     ecut=    50.00 Ry     beta= 0.50
     Davidson diagonalization with overlap
     ethr =  8.81E-12,  avg # of iterations =  9.7

     total cpu time spent up to now is     1433.2 secs

     total energy              =   -1492.28777929 Ry
     Harris-Foulkes estimate   =   -1492.28777929 Ry
     estimated scf accuracy    <       0.00000008 Ry

     iteration # 47     ecut=    50.00 Ry     beta= 0.50
     Davidson diagonalization with overlap
     ethr =  8.81E-12,  avg # of iterations =  1.0

     total cpu time spent up to now is     1443.6 secs

     total energy              =   -1492.28777926 Ry
     Harris-Foulkes estimate   =   -1492.28777929 Ry
     estimated scf accuracy    <       0.00000007 Ry

     iteration # 48     ecut=    50.00 Ry     beta= 0.50
     Davidson diagonalization with overlap
     ethr =  8.81E-12,  avg # of iterations =  7.4

     total cpu time spent up to now is     1464.6 secs

     total energy              =   -1492.28777928 Ry
     Harris-Foulkes estimate   =   -1492.28777928 Ry
     estimated scf accuracy    <       0.00000003 Ry

     iteration # 49     ecut=    50.00 Ry     beta= 0.50
     Davidson diagonalization with overlap
     ethr =  8.51E-12,  avg # of iterations =  1.0

     total cpu time spent up to now is     1475.1 secs

     total energy              =   -1492.28777927 Ry
     Harris-Foulkes estimate   =   -1492.28777928 Ry
     estimated scf accuracy    <       0.00000002 Ry

     iteration # 50     ecut=    50.00 Ry     beta= 0.50
     Davidson diagonalization with overlap
     ethr =  7.08E-12,  avg # of iterations =  8.5

     total cpu time spent up to now is     1493.5 secs

     End of self-consistent calculation

          k = 0.0750 0.0700-0.0677 ( 40113 PWs)   bands (ev):

   -20.9476 -20.9473 -20.5628 -20.5625 -18.6018 -18.6013 -18.1791 -18.1786
   -15.1290 -15.1263 -15.1106 -15.1078 -14.2045 -14.1998 -14.1924 -14.1878
   -13.0485 -13.0409 -12.9998 -12.9927 -12.7312 -12.7229 -12.6831 -12.6780
   -11.6593 -11.6529 -11.6282 -11.6224 -11.2959 -11.2913 -11.2779 -11.2722
   -10.7382 -10.7290 -10.5837 -10.5689  -9.5545  -9.5485  -9.2312  -9.2247
    -8.8095  -8.7898  -8.6759  -8.6404  -8.2822  -8.2656  -8.2398  -8.2184
    -7.6289  -7.6209  -7.5755  -7.5651  -7.5100  -7.4991  -7.4338  -7.4251
    -6.5672  -6.5298  -6.2295  -6.1779  -6.0251  -5.9718  -5.9378  -5.9350
    -5.8604  -5.8310  -5.5894  -5.5549  -5.2439  -5.2321  -4.9207  -4.8700
    -4.7620  -4.7395  -4.6624  -4.6502  -4.3156  -4.3018  -4.2772  -4.2435
    -4.2017  -4.1837  -4.1434  -4.1271  -4.1008  -4.0860  -4.0236  -3.9997
    -3.6757  -3.6615  -3.6407  -3.6303  -3.4224  -3.4020  -3.2670  -3.2386
    -3.1702  -3.1541  -3.0861  -3.0464  -2.9695  -2.9279  -2.8138  -2.7939
    -2.7749  -2.7593  -2.5891  -2.5616  -2.4176  -2.3870  -2.2524  -2.2423
    -2.2147  -2.2028  -2.0507  -2.0260  -1.9490  -1.9395  -1.8705  -1.8500
    -1.4775  -1.4515  -1.4476  -1.4272  -1.3991  -1.3885  -1.2902  -1.2443
    -1.0975  -1.0731  -1.0473  -1.0105  -0.9414  -0.9297  -0.9042  -0.8966
    -0.7087  -0.6729  -0.6347  -0.6272  -0.3024  -0.2923  -0.2517  -0.2209
    -0.1221  -0.0951   0.0185   0.0313   0.2660   0.2713   0.3666   0.3802
     0.8853   0.9029   0.9183   0.9233   1.0272   1.0468   1.0760   1.0907
     2.1821   2.2032   2.2368   2.2664

     occupation numbers 
     1.0000   1.0000   1.0000   1.0000   1.0000   1.0000   1.0000   1.0000
     1.0000   1.0000   1.0000   1.0000   1.0000   1.0000   1.0000   1.0000
     1.0000   1.0000   1.0000   1.0000   1.0000   1.0000   1.0000   1.0000
     1.0000   1.0000   1.0000   1.0000   1.0000   1.0000   1.0000   1.0000
     1.0000   1.0000   1.0000   1.0000   1.0000   1.0000   1.0000   1.0000
     1.0000   1.0000   1.0000   1.0000   1.0000   1.0000   1.0000   1.0000
     1.0000   1.0000   1.0000   1.0000   1.0000   1.0000   1.0000   1.0000
     1.0000   1.0000   1.0000   1.0000   1.0000   1.0000   1.0000   1.0000
     1.0000   1.0000   1.0000   1.0000   1.0000   1.0000   1.0000   1.0000
     1.0000   1.0000   1.0000   1.0000   1.0000   1.0000   1.0000   1.0000
     1.0000   1.0000   1.0000   1.0000   1.0000   1.0000   1.0000   1.0000
     1.0000   1.0000   1.0000   1.0000   1.0000   1.0000   1.0000   1.0000
     1.0000   1.0000   1.0000   1.0000   1.0000   1.0000   1.0000   1.0000
     1.0000   1.0000   1.0000   1.0000   1.0000   1.0000   1.0000   1.0000
     1.0000   1.0000   1.0000   1.0000   1.0000   1.0000   1.0000   1.0000
     1.0000   1.0000   1.0000   1.0000   1.0000   1.0000   1.0000   1.0000
     1.0000   1.0000   1.0000   1.0000   1.0000   1.0000   1.0000   1.0000
     1.0000   1.0000   1.0000   1.0000   1.0000   1.0000   1.0000   1.0000
     1.0000   1.0000   1.0000   1.0000   1.0000   1.0000   1.0000   1.0000
     1.0000   1.0000   1.0000   1.0000   1.0000   1.0000   1.0000   1.0000
     1.0000   1.0000   1.0000   1.0000

          k = 0.0750-0.2099-0.0677 ( 40131 PWs)   bands (ev):

   -20.9476 -20.9473 -20.5628 -20.5625 -18.6018 -18.6014 -18.1790 -18.1786
   -15.1180 -15.1180 -15.1097 -15.1096 -14.2211 -14.2210 -14.2087 -14.2087
   -13.0103 -13.0102 -12.9835 -12.9834 -12.7146 -12.7145 -12.6978 -12.6977
   -11.6037 -11.6037 -11.5783 -11.5783 -11.3094 -11.3093 -11.2964 -11.2963
   -10.7701 -10.7700 -10.6756 -10.6756  -9.5737  -9.5736  -9.2147  -9.2145
    -8.8069  -8.8068  -8.7019  -8.7019  -8.2392  -8.2391  -8.1754  -8.1753
    -7.5749  -7.5747  -7.5215  -7.5214  -7.4904  -7.4904  -7.4030  -7.4029
    -6.4289  -6.4287  -6.2573  -6.2572  -6.0600  -6.0600  -6.0322  -6.0321
    -5.9466  -5.9465  -5.4517  -5.4516  -5.2056  -5.2055  -4.8892  -4.8890
    -4.7608  -4.7607  -4.6776  -4.6775  -4.3499  -4.3498  -4.3211  -4.3210
    -4.2107  -4.2106  -4.1545  -4.1544  -4.1211  -4.1210  -4.0525  -4.0524
    -3.6752  -3.6750  -3.5681  -3.5679  -3.3999  -3.3998  -3.3062  -3.3061
    -3.1680  -3.1679  -2.9816  -2.9815  -2.8621  -2.8620  -2.7953  -2.7952
    -2.7816  -2.7816  -2.5765  -2.5764  -2.4973  -2.4973  -2.2477  -2.2477
    -2.2388  -2.2387  -2.0010  -2.0010  -1.9787  -1.9787  -1.7664  -1.7662
    -1.4243  -1.4242  -1.3991  -1.3990  -1.2576  -1.2574  -1.2169  -1.2167
    -1.1594  -1.1593  -1.0758  -1.0758  -0.9821  -0.9820  -0.8554  -0.8552
    -0.7897  -0.7896  -0.6514  -0.6512  -0.3173  -0.3172  -0.2612  -0.2611
    -0.0789  -0.0788   0.0064   0.0064   0.2879   0.2881   0.3863   0.3865
     0.9027   0.9028   0.9351   0.9353   1.0042   1.0043   1.0475   1.0475
     2.2013   2.2014   2.2930   2.2931

     occupation numbers 
     1.0000   1.0000   1.0000   1.0000   1.0000   1.0000   1.0000   1.0000
     1.0000   1.0000   1.0000   1.0000   1.0000   1.0000   1.0000   1.0000
     1.0000   1.0000   1.0000   1.0000   1.0000   1.0000   1.0000   1.0000
     1.0000   1.0000   1.0000   1.0000   1.0000   1.0000   1.0000   1.0000
     1.0000   1.0000   1.0000   1.0000   1.0000   1.0000   1.0000   1.0000
     1.0000   1.0000   1.0000   1.0000   1.0000   1.0000   1.0000   1.0000
     1.0000   1.0000   1.0000   1.0000   1.0000   1.0000   1.0000   1.0000
     1.0000   1.0000   1.0000   1.0000   1.0000   1.0000   1.0000   1.0000
     1.0000   1.0000   1.0000   1.0000   1.0000   1.0000   1.0000   1.0000
     1.0000   1.0000   1.0000   1.0000   1.0000   1.0000   1.0000   1.0000
     1.0000   1.0000   1.0000   1.0000   1.0000   1.0000   1.0000   1.0000
     1.0000   1.0000   1.0000   1.0000   1.0000   1.0000   1.0000   1.0000
     1.0000   1.0000   1.0000   1.0000   1.0000   1.0000   1.0000   1.0000
     1.0000   1.0000   1.0000   1.0000   1.0000   1.0000   1.0000   1.0000
     1.0000   1.0000   1.0000   1.0000   1.0000   1.0000   1.0000   1.0000
     1.0000   1.0000   1.0000   1.0000   1.0000   1.0000   1.0000   1.0000
     1.0000   1.0000   1.0000   1.0000   1.0000   1.0000   1.0000   1.0000
     1.0000   1.0000   1.0000   1.0000   1.0000   1.0000   1.0000   1.0000
     1.0000   1.0000   1.0000   1.0000   1.0000   1.0000   1.0000   1.0000
     1.0000   1.0000   1.0000   1.0000   1.0000   1.0000   1.0000   1.0000
     1.0000   1.0000   1.0000   1.0000

          k = 0.0750-0.0700-0.0677 ( 40112 PWs)   bands (ev):

   -20.9476 -20.9473 -20.5628 -20.5625 -18.6018 -18.6013 -18.1791 -18.1786
   -15.1290 -15.1263 -15.1106 -15.1079 -14.2045 -14.1998 -14.1924 -14.1877
   -13.0485 -13.0409 -12.9997 -12.9927 -12.7312 -12.7229 -12.6831 -12.6779
   -11.6592 -11.6530 -11.6281 -11.6225 -11.2959 -11.2912 -11.2780 -11.2722
   -10.7383 -10.7289 -10.5838 -10.5688  -9.5545  -9.5485  -9.2312  -9.2246
    -8.8095  -8.7897  -8.6759  -8.6404  -8.2821  -8.2657  -8.2397  -8.2184
    -7.6288  -7.6210  -7.5755  -7.5651  -7.5100  -7.4991  -7.4338  -7.4252
    -6.5673  -6.5297  -6.2296  -6.1779  -6.0252  -5.9718  -5.9379  -5.9349
    -5.8604  -5.8310  -5.5893  -5.5550  -5.2439  -5.2322  -4.9206  -4.8700
    -4.7619  -4.7396  -4.6622  -4.6503  -4.3156  -4.3017  -4.2772  -4.2435
    -4.2017  -4.1838  -4.1434  -4.1270  -4.1008  -4.0859  -4.0237  -3.9996
    -3.6756  -3.6616  -3.6407  -3.6302  -3.4225  -3.4019  -3.2671  -3.2386
    -3.1701  -3.1542  -3.0860  -3.0464  -2.9694  -2.9280  -2.8138  -2.7939
    -2.7749  -2.7593  -2.5891  -2.5616  -2.4176  -2.3870  -2.2525  -2.2423
    -2.2147  -2.2028  -2.0507  -2.0260  -1.9490  -1.9396  -1.8705  -1.8500
    -1.4775  -1.4515  -1.4476  -1.4272  -1.3991  -1.3886  -1.2902  -1.2444
    -1.0974  -1.0732  -1.0472  -1.0106  -0.9415  -0.9296  -0.9043  -0.8966
    -0.7087  -0.6728  -0.6347  -0.6273  -0.3024  -0.2923  -0.2517  -0.2209
    -0.1220  -0.0951   0.0184   0.0313   0.2659   0.2714   0.3665   0.3803
     0.8853   0.9029   0.9183   0.9233   1.0271   1.0469   1.0760   1.0907
     2.1821   2.2031   2.2368   2.2664

     occupation numbers 
     1.0000   1.0000   1.0000   1.0000   1.0000   1.0000   1.0000   1.0000
     1.0000   1.0000   1.0000   1.0000   1.0000   1.0000   1.0000   1.0000
     1.0000   1.0000   1.0000   1.0000   1.0000   1.0000   1.0000   1.0000
     1.0000   1.0000   1.0000   1.0000   1.0000   1.0000   1.0000   1.0000
     1.0000   1.0000   1.0000   1.0000   1.0000   1.0000   1.0000   1.0000
     1.0000   1.0000   1.0000   1.0000   1.0000   1.0000   1.0000   1.0000
     1.0000   1.0000   1.0000   1.0000   1.0000   1.0000   1.0000   1.0000
     1.0000   1.0000   1.0000   1.0000   1.0000   1.0000   1.0000   1.0000
     1.0000   1.0000   1.0000   1.0000   1.0000   1.0000   1.0000   1.0000
     1.0000   1.0000   1.0000   1.0000   1.0000   1.0000   1.0000   1.0000
     1.0000   1.0000   1.0000   1.0000   1.0000   1.0000   1.0000   1.0000
     1.0000   1.0000   1.0000   1.0000   1.0000   1.0000   1.0000   1.0000
     1.0000   1.0000   1.0000   1.0000   1.0000   1.0000   1.0000   1.0000
     1.0000   1.0000   1.0000   1.0000   1.0000   1.0000   1.0000   1.0000
     1.0000   1.0000   1.0000   1.0000   1.0000   1.0000   1.0000   1.0000
     1.0000   1.0000   1.0000   1.0000   1.0000   1.0000   1.0000   1.0000
     1.0000   1.0000   1.0000   1.0000   1.0000   1.0000   1.0000   1.0000
     1.0000   1.0000   1.0000   1.0000   1.0000   1.0000   1.0000   1.0000
     1.0000   1.0000   1.0000   1.0000   1.0000   1.0000   1.0000   1.0000
     1.0000   1.0000   1.0000   1.0000   1.0000   1.0000   1.0000   1.0000
     1.0000   1.0000   1.0000   1.0000

          k = 0.2236 0.0700-0.0673 ( 40208 PWs)   bands (ev):

   -20.9222 -20.9219 -20.5438 -20.5435 -18.6084 -18.6079 -18.1853 -18.1849
   -15.0602 -15.0530 -15.0449 -15.0376 -14.1527 -14.1444 -14.1403 -14.1322
   -13.0128 -12.9947 -12.9669 -12.9507 -12.6888 -12.6714 -12.6418 -12.6316
   -11.6213 -11.6070 -11.5908 -11.5774 -11.2940 -11.2829 -11.2784 -11.2657
   -10.7218 -10.6993 -10.5799 -10.5433  -9.5459  -9.5346  -9.2329  -9.2180
    -8.8240  -8.7803  -8.6996  -8.6270  -8.2770  -8.2493  -8.2344  -8.1974
    -7.6167  -7.5784  -7.5622  -7.5447  -7.5027  -7.4729  -7.4265  -7.4173
    -6.5631  -6.4828  -6.2626  -6.1803  -6.0387  -5.9861  -5.9587  -5.9373
    -5.8834  -5.8311  -5.6171  -5.5360  -5.2805  -5.2641  -4.8978  -4.8081
    -4.7352  -4.7313  -4.6597  -4.6379  -4.3396  -4.3244  -4.3107  -4.2589
    -4.2399  -4.2236  -4.2228  -4.1841  -4.1566  -4.1431  -4.0989  -4.0505
    -3.7439  -3.7192  -3.7110  -3.6932  -3.5156  -3.4694  -3.3316  -3.2785
    -3.1923  -3.1483  -3.1271  -3.0650  -3.0178  -2.9495  -2.8751  -2.8530
    -2.8423  -2.8262  -2.8103  -2.7948  -2.7851  -2.7546  -2.5877  -2.5367
    -2.4209  -2.3839  -2.0746  -2.0385  -1.9908  -1.9796  -1.9048  -1.8717
    -1.8542  -1.8202  -1.8154  -1.7889  -1.4501  -1.3988  -1.3055  -1.2531
    -1.0912  -1.0522  -1.0346  -0.9944  -0.9777  -0.9559  -0.9465  -0.9150
    -0.7566  -0.7067  -0.6266  -0.5982  -0.5092  -0.4728  -0.4436  -0.4295
    -0.4046  -0.3248  -0.2895  -0.2456   0.2066   0.2164   0.3312   0.3409
     0.7072   0.7473   0.7933   0.8119   0.9602   0.9744   0.9901   1.0046
     2.0403   2.0844   2.0912   2.1522

     occupation numbers 
     1.0000   1.0000   1.0000   1.0000   1.0000   1.0000   1.0000   1.0000
     1.0000   1.0000   1.0000   1.0000   1.0000   1.0000   1.0000   1.0000
     1.0000   1.0000   1.0000   1.0000   1.0000   1.0000   1.0000   1.0000
     1.0000   1.0000   1.0000   1.0000   1.0000   1.0000   1.0000   1.0000
     1.0000   1.0000   1.0000   1.0000   1.0000   1.0000   1.0000   1.0000
     1.0000   1.0000   1.0000   1.0000   1.0000   1.0000   1.0000   1.0000
     1.0000   1.0000   1.0000   1.0000   1.0000   1.0000   1.0000   1.0000
     1.0000   1.0000   1.0000   1.0000   1.0000   1.0000   1.0000   1.0000
     1.0000   1.0000   1.0000   1.0000   1.0000   1.0000   1.0000   1.0000
     1.0000   1.0000   1.0000   1.0000   1.0000   1.0000   1.0000   1.0000
     1.0000   1.0000   1.0000   1.0000   1.0000   1.0000   1.0000   1.0000
     1.0000   1.0000   1.0000   1.0000   1.0000   1.0000   1.0000   1.0000
     1.0000   1.0000   1.0000   1.0000   1.0000   1.0000   1.0000   1.0000
     1.0000   1.0000   1.0000   1.0000   1.0000   1.0000   1.0000   1.0000
     1.0000   1.0000   1.0000   1.0000   1.0000   1.0000   1.0000   1.0000
     1.0000   1.0000   1.0000   1.0000   1.0000   1.0000   1.0000   1.0000
     1.0000   1.0000   1.0000   1.0000   1.0000   1.0000   1.0000   1.0000
     1.0000   1.0000   1.0000   1.0000   1.0000   1.0000   1.0000   1.0000
     1.0000   1.0000   1.0000   1.0000   1.0000   1.0000   1.0000   1.0000
     1.0000   1.0000   1.0000   1.0000   1.0000   1.0000   1.0000   1.0000
     1.0000   1.0000   1.0000   1.0000

          k = 0.2236-0.2099-0.0672 ( 40185 PWs)   bands (ev):

   -20.9222 -20.9219 -20.5438 -20.5435 -18.6084 -18.6080 -18.1852 -18.1848
   -15.0500 -15.0499 -15.0413 -15.0412 -14.1612 -14.1611 -14.1505 -14.1504
   -12.9773 -12.9773 -12.9521 -12.9520 -12.6739 -12.6738 -12.6501 -12.6500
   -11.5726 -11.5725 -11.5510 -11.5509 -11.2942 -11.2941 -11.2805 -11.2804
   -10.7412 -10.7411 -10.6368 -10.6367  -9.5637  -9.5636  -9.2101  -9.2100
    -8.7989  -8.7989  -8.6930  -8.6930  -8.2471  -8.2470  -8.1932  -8.1932
    -7.5803  -7.5802  -7.5142  -7.5141  -7.4746  -7.4744  -7.4062  -7.4061
    -6.4028  -6.4026  -6.2317  -6.2316  -6.0596  -6.0594  -6.0211  -6.0210
    -5.9511  -5.9510  -5.4845  -5.4844  -5.2508  -5.2506  -4.8572  -4.8570
    -4.7666  -4.7665  -4.6194  -4.6193  -4.3878  -4.3877  -4.3336  -4.3335
    -4.2655  -4.2655  -4.1839  -4.1839  -4.1585  -4.1584  -4.0753  -4.0751
    -3.7810  -3.7808  -3.6670  -3.6668  -3.4667  -3.4666  -3.3344  -3.3343
    -3.1584  -3.1582  -3.0415  -3.0414  -2.9230  -2.9230  -2.8845  -2.8844
    -2.8255  -2.8255  -2.7882  -2.7882  -2.7749  -2.7748  -2.5737  -2.5737
    -2.5157  -2.5157  -2.0309  -2.0308  -2.0034  -2.0033  -1.8731  -1.8731
    -1.8346  -1.8345  -1.7411  -1.7410  -1.2677  -1.2676  -1.2031  -1.2029
    -1.1656  -1.1655  -1.1225  -1.1224  -0.9987  -0.9986  -0.9075  -0.9074
    -0.7446  -0.7445  -0.6269  -0.6267  -0.5159  -0.5158  -0.4296  -0.4296
    -0.3308  -0.3308  -0.2792  -0.2792   0.2237   0.2240   0.3538   0.3540
     0.7382   0.7383   0.7645   0.7646   0.9647   0.9648   0.9905   0.9906
     2.0480   2.0481   2.1497   2.1498

     occupation numbers 
     1.0000   1.0000   1.0000   1.0000   1.0000   1.0000   1.0000   1.0000
     1.0000   1.0000   1.0000   1.0000   1.0000   1.0000   1.0000   1.0000
     1.0000   1.0000   1.0000   1.0000   1.0000   1.0000   1.0000   1.0000
     1.0000   1.0000   1.0000   1.0000   1.0000   1.0000   1.0000   1.0000
     1.0000   1.0000   1.0000   1.0000   1.0000   1.0000   1.0000   1.0000
     1.0000   1.0000   1.0000   1.0000   1.0000   1.0000   1.0000   1.0000
     1.0000   1.0000   1.0000   1.0000   1.0000   1.0000   1.0000   1.0000
     1.0000   1.0000   1.0000   1.0000   1.0000   1.0000   1.0000   1.0000
     1.0000   1.0000   1.0000   1.0000   1.0000   1.0000   1.0000   1.0000
     1.0000   1.0000   1.0000   1.0000   1.0000   1.0000   1.0000   1.0000
     1.0000   1.0000   1.0000   1.0000   1.0000   1.0000   1.0000   1.0000
     1.0000   1.0000   1.0000   1.0000   1.0000   1.0000   1.0000   1.0000
     1.0000   1.0000   1.0000   1.0000   1.0000   1.0000   1.0000   1.0000
     1.0000   1.0000   1.0000   1.0000   1.0000   1.0000   1.0000   1.0000
     1.0000   1.0000   1.0000   1.0000   1.0000   1.0000   1.0000   1.0000
     1.0000   1.0000   1.0000   1.0000   1.0000   1.0000   1.0000   1.0000
     1.0000   1.0000   1.0000   1.0000   1.0000   1.0000   1.0000   1.0000
     1.0000   1.0000   1.0000   1.0000   1.0000   1.0000   1.0000   1.0000
     1.0000   1.0000   1.0000   1.0000   1.0000   1.0000   1.0000   1.0000
     1.0000   1.0000   1.0000   1.0000   1.0000   1.0000   1.0000   1.0000
     1.0000   1.0000   1.0000   1.0000

          k = 0.2236-0.0700-0.0672 ( 40208 PWs)   bands (ev):

   -20.9222 -20.9219 -20.5438 -20.5435 -18.6084 -18.6079 -18.1853 -18.1849
   -15.0602 -15.0530 -15.0449 -15.0376 -14.1527 -14.1444 -14.1403 -14.1321
   -13.0127 -12.9947 -12.9668 -12.9507 -12.6887 -12.6714 -12.6418 -12.6316
   -11.6212 -11.6070 -11.5908 -11.5775 -11.2940 -11.2828 -11.2785 -11.2656
   -10.7219 -10.6992 -10.5800 -10.5432  -9.5459  -9.5346  -9.2329  -9.2179
    -8.8240  -8.7802  -8.6996  -8.6270  -8.2770  -8.2492  -8.2345  -8.1974
    -7.6167  -7.5784  -7.5622  -7.5446  -7.5028  -7.4729  -7.4265  -7.4174
    -6.5631  -6.4827  -6.2627  -6.1802  -6.0388  -5.9862  -5.9586  -5.9373
    -5.8834  -5.8311  -5.6170  -5.5361  -5.2804  -5.2642  -4.8978  -4.8081
    -4.7352  -4.7312  -4.6598  -4.6379  -4.3397  -4.3244  -4.3108  -4.2589
    -4.2398  -4.2236  -4.2228  -4.1840  -4.1566  -4.1431  -4.0990  -4.0504
    -3.7441  -3.7190  -3.7109  -3.6933  -3.5157  -3.4693  -3.3317  -3.2785
    -3.1922  -3.1483  -3.1271  -3.0651  -3.0178  -2.9496  -2.8752  -2.8530
    -2.8422  -2.8262  -2.8103  -2.7948  -2.7850  -2.7547  -2.5877  -2.5367
    -2.4209  -2.3839  -2.0747  -2.0384  -1.9907  -1.9797  -1.9049  -1.8716
    -1.8541  -1.8202  -1.8154  -1.7889  -1.4501  -1.3988  -1.3055  -1.2531
    -1.0912  -1.0522  -1.0346  -0.9944  -0.9776  -0.9559  -0.9464  -0.9151
    -0.7566  -0.7066  -0.6267  -0.5981  -0.5092  -0.4728  -0.4437  -0.4295
    -0.4045  -0.3248  -0.2896  -0.2456   0.2063   0.2166   0.3309   0.3411
     0.7071   0.7474   0.7933   0.8120   0.9602   0.9743   0.9902   1.0046
     2.0403   2.0844   2.0912   2.1522

     occupation numbers 
     1.0000   1.0000   1.0000   1.0000   1.0000   1.0000   1.0000   1.0000
     1.0000   1.0000   1.0000   1.0000   1.0000   1.0000   1.0000   1.0000
     1.0000   1.0000   1.0000   1.0000   1.0000   1.0000   1.0000   1.0000
     1.0000   1.0000   1.0000   1.0000   1.0000   1.0000   1.0000   1.0000
     1.0000   1.0000   1.0000   1.0000   1.0000   1.0000   1.0000   1.0000
     1.0000   1.0000   1.0000   1.0000   1.0000   1.0000   1.0000   1.0000
     1.0000   1.0000   1.0000   1.0000   1.0000   1.0000   1.0000   1.0000
     1.0000   1.0000   1.0000   1.0000   1.0000   1.0000   1.0000   1.0000
     1.0000   1.0000   1.0000   1.0000   1.0000   1.0000   1.0000   1.0000
     1.0000   1.0000   1.0000   1.0000   1.0000   1.0000   1.0000   1.0000
     1.0000   1.0000   1.0000   1.0000   1.0000   1.0000   1.0000   1.0000
     1.0000   1.0000   1.0000   1.0000   1.0000   1.0000   1.0000   1.0000
     1.0000   1.0000   1.0000   1.0000   1.0000   1.0000   1.0000   1.0000
     1.0000   1.0000   1.0000   1.0000   1.0000   1.0000   1.0000   1.0000
     1.0000   1.0000   1.0000   1.0000   1.0000   1.0000   1.0000   1.0000
     1.0000   1.0000   1.0000   1.0000   1.0000   1.0000   1.0000   1.0000
     1.0000   1.0000   1.0000   1.0000   1.0000   1.0000   1.0000   1.0000
     1.0000   1.0000   1.0000   1.0000   1.0000   1.0000   1.0000   1.0000
     1.0000   1.0000   1.0000   1.0000   1.0000   1.0000   1.0000   1.0000
     1.0000   1.0000   1.0000   1.0000   1.0000   1.0000   1.0000   1.0000
     1.0000   1.0000   1.0000   1.0000

          k = 0.3722 0.0700-0.0668 ( 40269 PWs)   bands (ev):

   -20.8898 -20.8895 -20.5198 -20.5195 -18.6172 -18.6167 -18.1935 -18.1931
   -14.9667 -14.9585 -14.9551 -14.9468 -14.0830 -14.0774 -14.0707 -14.0651
   -12.9609 -12.9471 -12.9174 -12.9058 -12.6278 -12.6165 -12.5820 -12.5768
   -11.5660 -11.5541 -11.5372 -11.5246 -11.2910 -11.2824 -11.2768 -11.2678
   -10.6922 -10.6724 -10.5612 -10.5281  -9.5304  -9.5247  -9.2313  -9.2160
    -8.8278  -8.8077  -8.6773  -8.6485  -8.2526  -8.2437  -8.2146  -8.1923
    -7.5847  -7.5624  -7.5135  -7.5052  -7.4995  -7.4573  -7.4181  -7.4061
    -6.5200  -6.4610  -6.2612  -6.2137  -6.0461  -6.0217  -5.9844  -5.9712
    -5.8986  -5.8586  -5.6086  -5.5396  -5.3186  -5.3122  -4.8202  -4.7902
    -4.7121  -4.6863  -4.6278  -4.6011  -4.5211  -4.4479  -4.3707  -4.3340
    -4.2964  -4.2717  -4.2507  -4.2323  -4.2110  -4.1967  -4.1737  -4.1311
    -3.8494  -3.7969  -3.7687  -3.7563  -3.5720  -3.5351  -3.4393  -3.4300
    -3.3987  -3.3781  -3.3532  -3.2629  -3.1351  -3.1131  -3.0533  -3.0203
    -2.9937  -2.9307  -2.8674  -2.8585  -2.8506  -2.8423  -2.5927  -2.5274
    -2.4945  -2.4297  -2.3303  -2.3257  -2.3045  -2.2727  -2.0717  -2.0216
    -2.0066  -1.9806  -1.8764  -1.8670  -1.4034  -1.3767  -1.3013  -1.2894
    -1.1385  -1.0755  -1.0626  -1.0533  -1.0424  -1.0046  -1.0005  -0.9803
    -0.9141  -0.8997  -0.8540  -0.8238  -0.7468  -0.7198  -0.6963  -0.6411
    -0.5536  -0.5245  -0.3620  -0.3550   0.1319   0.1514   0.1969   0.2259
     0.4245   0.4589   0.5667   0.6047   0.8789   0.8872   0.8894   0.9000
     1.8901   1.9370   1.9572   2.0110

     occupation numbers 
     1.0000   1.0000   1.0000   1.0000   1.0000   1.0000   1.0000   1.0000
     1.0000   1.0000   1.0000   1.0000   1.0000   1.0000   1.0000   1.0000
     1.0000   1.0000   1.0000   1.0000   1.0000   1.0000   1.0000   1.0000
     1.0000   1.0000   1.0000   1.0000   1.0000   1.0000   1.0000   1.0000
     1.0000   1.0000   1.0000   1.0000   1.0000   1.0000   1.0000   1.0000
     1.0000   1.0000   1.0000   1.0000   1.0000   1.0000   1.0000   1.0000
     1.0000   1.0000   1.0000   1.0000   1.0000   1.0000   1.0000   1.0000
     1.0000   1.0000   1.0000   1.0000   1.0000   1.0000   1.0000   1.0000
     1.0000   1.0000   1.0000   1.0000   1.0000   1.0000   1.0000   1.0000
     1.0000   1.0000   1.0000   1.0000   1.0000   1.0000   1.0000   1.0000
     1.0000   1.0000   1.0000   1.0000   1.0000   1.0000   1.0000   1.0000
     1.0000   1.0000   1.0000   1.0000   1.0000   1.0000   1.0000   1.0000
     1.0000   1.0000   1.0000   1.0000   1.0000   1.0000   1.0000   1.0000
     1.0000   1.0000   1.0000   1.0000   1.0000   1.0000   1.0000   1.0000
     1.0000   1.0000   1.0000   1.0000   1.0000   1.0000   1.0000   1.0000
     1.0000   1.0000   1.0000   1.0000   1.0000   1.0000   1.0000   1.0000
     1.0000   1.0000   1.0000   1.0000   1.0000   1.0000   1.0000   1.0000
     1.0000   1.0000   1.0000   1.0000   1.0000   1.0000   1.0000   1.0000
     1.0000   1.0000   1.0000   1.0000   1.0000   1.0000   1.0000   1.0000
     1.0000   1.0000   1.0000   1.0000   1.0000   1.0000   1.0000   1.0000
     1.0000   1.0000   1.0000   1.0000

          k = 0.3722-0.2099-0.0668 ( 40295 PWs)   bands (ev):

   -20.8898 -20.8895 -20.5198 -20.5195 -18.6172 -18.6168 -18.1935 -18.1931
   -14.9602 -14.9601 -14.9508 -14.9507 -14.0832 -14.0831 -14.0752 -14.0751
   -12.9390 -12.9389 -12.9155 -12.9154 -12.6220 -12.6220 -12.5894 -12.5893
   -11.5336 -11.5336 -11.5181 -11.5180 -11.2782 -11.2781 -11.2674 -11.2673
   -10.6992 -10.6990 -10.5843 -10.5842  -9.5519  -9.5518  -9.2071  -9.2070
    -8.7928  -8.7927  -8.6834  -8.6833  -8.2553  -8.2552  -8.2233  -8.2232
    -7.5831  -7.5829  -7.5207  -7.5206  -7.4479  -7.4478  -7.4127  -7.4126
    -6.3681  -6.3680  -6.2029  -6.2028  -6.0530  -6.0529  -5.9828  -5.9827
    -5.9649  -5.9648  -5.5424  -5.5423  -5.3160  -5.3158  -4.8378  -4.8376
    -4.7128  -4.7126  -4.5957  -4.5956  -4.4771  -4.4769  -4.3740  -4.3739
    -4.2778  -4.2777  -4.2607  -4.2607  -4.2094  -4.2093  -4.1662  -4.1661
    -3.8139  -3.8137  -3.7497  -3.7496  -3.5398  -3.5397  -3.4570  -3.4569
    -3.3891  -3.3890  -3.3233  -3.3232  -3.1018  -3.1016  -2.9974  -2.9973
    -2.9237  -2.9237  -2.8805  -2.8805  -2.8359  -2.8358  -2.6097  -2.6096
    -2.5526  -2.5525  -2.3411  -2.3411  -2.2802  -2.2802  -2.0459  -2.0458
    -2.0223  -2.0222  -1.7756  -1.7754  -1.2883  -1.2881  -1.2527  -1.2527
    -1.1834  -1.1833  -1.1510  -1.1509  -1.0798  -1.0797  -0.9670  -0.9668
    -0.8903  -0.8902  -0.8180  -0.8179  -0.7213  -0.7213  -0.6621  -0.6621
    -0.5231  -0.5230  -0.3574  -0.3572   0.1419   0.1421   0.2144   0.2146
     0.4913   0.4914   0.5366   0.5367   0.8739   0.8740   0.8831   0.8831
     1.8954   1.8954   2.0072   2.0073

     occupation numbers 
     1.0000   1.0000   1.0000   1.0000   1.0000   1.0000   1.0000   1.0000
     1.0000   1.0000   1.0000   1.0000   1.0000   1.0000   1.0000   1.0000
     1.0000   1.0000   1.0000   1.0000   1.0000   1.0000   1.0000   1.0000
     1.0000   1.0000   1.0000   1.0000   1.0000   1.0000   1.0000   1.0000
     1.0000   1.0000   1.0000   1.0000   1.0000   1.0000   1.0000   1.0000
     1.0000   1.0000   1.0000   1.0000   1.0000   1.0000   1.0000   1.0000
     1.0000   1.0000   1.0000   1.0000   1.0000   1.0000   1.0000   1.0000
     1.0000   1.0000   1.0000   1.0000   1.0000   1.0000   1.0000   1.0000
     1.0000   1.0000   1.0000   1.0000   1.0000   1.0000   1.0000   1.0000
     1.0000   1.0000   1.0000   1.0000   1.0000   1.0000   1.0000   1.0000
     1.0000   1.0000   1.0000   1.0000   1.0000   1.0000   1.0000   1.0000
     1.0000   1.0000   1.0000   1.0000   1.0000   1.0000   1.0000   1.0000
     1.0000   1.0000   1.0000   1.0000   1.0000   1.0000   1.0000   1.0000
     1.0000   1.0000   1.0000   1.0000   1.0000   1.0000   1.0000   1.0000
     1.0000   1.0000   1.0000   1.0000   1.0000   1.0000   1.0000   1.0000
     1.0000   1.0000   1.0000   1.0000   1.0000   1.0000   1.0000   1.0000
     1.0000   1.0000   1.0000   1.0000   1.0000   1.0000   1.0000   1.0000
     1.0000   1.0000   1.0000   1.0000   1.0000   1.0000   1.0000   1.0000
     1.0000   1.0000   1.0000   1.0000   1.0000   1.0000   1.0000   1.0000
     1.0000   1.0000   1.0000   1.0000   1.0000   1.0000   1.0000   1.0000
     1.0000   1.0000   1.0000   1.0000

          k = 0.3722-0.0700-0.0668 ( 40270 PWs)   bands (ev):

   -20.8898 -20.8895 -20.5198 -20.5195 -18.6172 -18.6167 -18.1935 -18.1931
   -14.9667 -14.9585 -14.9551 -14.9468 -14.0831 -14.0774 -14.0707 -14.0650
   -12.9608 -12.9472 -12.9173 -12.9059 -12.6278 -12.6165 -12.5821 -12.5768
   -11.5660 -11.5541 -11.5373 -11.5247 -11.2910 -11.2824 -11.2768 -11.2678
   -10.6923 -10.6723 -10.5612 -10.5280  -9.5304  -9.5248  -9.2313  -9.2160
    -8.8278  -8.8076  -8.6773  -8.6485  -8.2525  -8.2436  -8.2146  -8.1924
    -7.5846  -7.5625  -7.5135  -7.5051  -7.4995  -7.4573  -7.4181  -7.4061
    -6.5200  -6.4609  -6.2612  -6.2137  -6.0462  -6.0218  -5.9843  -5.9711
    -5.8986  -5.8585  -5.6085  -5.5397  -5.3184  -5.3124  -4.8201  -4.7903
    -4.7119  -4.6864  -4.6279  -4.6011  -4.5213  -4.4478  -4.3708  -4.3339
    -4.2963  -4.2717  -4.2507  -4.2323  -4.2110  -4.1967  -4.1737  -4.1311
    -3.8496  -3.7968  -3.7687  -3.7563  -3.5721  -3.5351  -3.4393  -3.4301
    -3.3987  -3.3780  -3.3532  -3.2629  -3.1350  -3.1132  -3.0532  -3.0203
    -2.9937  -2.9307  -2.8675  -2.8585  -2.8505  -2.8423  -2.5927  -2.5274
    -2.4945  -2.4297  -2.3303  -2.3257  -2.3045  -2.2728  -2.0718  -2.0217
    -2.0066  -1.9805  -1.8762  -1.8671  -1.4034  -1.3767  -1.3013  -1.2894
    -1.1385  -1.0754  -1.0627  -1.0533  -1.0424  -1.0046  -1.0004  -0.9803
    -0.9141  -0.8997  -0.8540  -0.8238  -0.7468  -0.7198  -0.6964  -0.6411
    -0.5537  -0.5244  -0.3622  -0.3548   0.1317   0.1516   0.1969   0.2259
     0.4245   0.4589   0.5667   0.6048   0.8789   0.8871   0.8894   0.8999
     1.8901   1.9370   1.9572   2.0110

     occupation numbers 
     1.0000   1.0000   1.0000   1.0000   1.0000   1.0000   1.0000   1.0000
     1.0000   1.0000   1.0000   1.0000   1.0000   1.0000   1.0000   1.0000
     1.0000   1.0000   1.0000   1.0000   1.0000   1.0000   1.0000   1.0000
     1.0000   1.0000   1.0000   1.0000   1.0000   1.0000   1.0000   1.0000
     1.0000   1.0000   1.0000   1.0000   1.0000   1.0000   1.0000   1.0000
     1.0000   1.0000   1.0000   1.0000   1.0000   1.0000   1.0000   1.0000
     1.0000   1.0000   1.0000   1.0000   1.0000   1.0000   1.0000   1.0000
     1.0000   1.0000   1.0000   1.0000   1.0000   1.0000   1.0000   1.0000
     1.0000   1.0000   1.0000   1.0000   1.0000   1.0000   1.0000   1.0000
     1.0000   1.0000   1.0000   1.0000   1.0000   1.0000   1.0000   1.0000
     1.0000   1.0000   1.0000   1.0000   1.0000   1.0000   1.0000   1.0000
     1.0000   1.0000   1.0000   1.0000   1.0000   1.0000   1.0000   1.0000
     1.0000   1.0000   1.0000   1.0000   1.0000   1.0000   1.0000   1.0000
     1.0000   1.0000   1.0000   1.0000   1.0000   1.0000   1.0000   1.0000
     1.0000   1.0000   1.0000   1.0000   1.0000   1.0000   1.0000   1.0000
     1.0000   1.0000   1.0000   1.0000   1.0000   1.0000   1.0000   1.0000
     1.0000   1.0000   1.0000   1.0000   1.0000   1.0000   1.0000   1.0000
     1.0000   1.0000   1.0000   1.0000   1.0000   1.0000   1.0000   1.0000
     1.0000   1.0000   1.0000   1.0000   1.0000   1.0000   1.0000   1.0000
     1.0000   1.0000   1.0000   1.0000   1.0000   1.0000   1.0000   1.0000
     1.0000   1.0000   1.0000   1.0000

          k =-0.5194 0.0700-0.0695 ( 40306 PWs)   bands (ev):

   -20.8751 -20.8748 -20.5091 -20.5088 -18.6213 -18.6209 -18.1974 -18.1969
   -14.9220 -14.9164 -14.9108 -14.9051 -14.0504 -14.0445 -14.0421 -14.0361
   -12.9323 -12.9314 -12.8928 -12.8896 -12.5985 -12.5937 -12.5539 -12.5533
   -11.5380 -11.5289 -11.5133 -11.5032 -11.2876 -11.2817 -11.2801 -11.2740
   -10.6711 -10.6692 -10.5379 -10.5373  -9.5225  -9.5224  -9.2303  -9.2162
    -8.8357  -8.8118  -8.6720  -8.6588  -8.2400  -8.2274  -8.2125  -8.2010
    -7.5700  -7.5478  -7.5072  -7.4845  -7.4756  -7.4691  -7.4122  -7.4008
    -6.4879  -6.4594  -6.2553  -6.2305  -6.0563  -6.0243  -6.0187  -5.9700
    -5.9220  -5.8774  -5.5791  -5.5635  -5.3384  -5.3300  -4.7813  -4.7799
    -4.6926  -4.6773  -4.6180  -4.5660  -4.5586  -4.5559  -4.4380  -4.4105
    -4.2997  -4.2876  -4.2619  -4.2492  -4.2337  -4.2130  -4.1998  -4.1695
    -3.8663  -3.8661  -3.7906  -3.7883  -3.6417  -3.6069  -3.6066  -3.5834
    -3.5315  -3.5160  -3.3620  -3.2674  -3.1249  -3.1100  -3.0392  -3.0306
    -3.0149  -2.9641  -2.8878  -2.8800  -2.8769  -2.8613  -2.5988  -2.5615
    -2.5125  -2.5057  -2.4750  -2.4582  -2.4332  -2.4184  -2.0780  -2.0627
    -2.0224  -2.0061  -1.8822  -1.8795  -1.3766  -1.3481  -1.3232  -1.3034
    -1.1726  -1.1412  -1.1206  -1.1023  -1.0728  -1.0665  -1.0350  -1.0266
    -0.9844  -0.9681  -0.9630  -0.9346  -0.8579  -0.8224  -0.8201  -0.7482
[...]
     atom   41 type  2   force =     0.00000011   -0.00000302   -0.00000246
     atom   42 type  2   force =    -0.00000046    0.00000087   -0.00000480
     atom   43 type  2   force =    -0.00000012   -0.00000167   -0.00000520
     atom   44 type  2   force =     0.00000042    0.00000138   -0.00000106
     atom   45 type  1   force =     0.00000003    0.00000019   -0.00000013
     atom   46 type  1   force =     0.00000003    0.00000018   -0.00000033
     atom   47 type  1   force =    -0.00000000    0.00000026   -0.00000026
     atom   48 type  1   force =    -0.00000009   -0.00000020   -0.00000029
     atom   49 type  1   force =     0.00000008   -0.00000018    0.00000035
     atom   50 type  1   force =     0.00000001    0.00000053   -0.00000029
     atom   51 type  1   force =     0.00000002    0.00000006   -0.00000041
     atom   52 type  1   force =     0.00000003   -0.00000017   -0.00000012
     atom   53 type  1   force =     0.00000008   -0.00000013   -0.00000005
     atom   54 type  1   force =     0.00000012    0.00000060    0.00000037
     atom   55 type  3   force =     0.00000003   -0.00000013    0.00000060
     atom   56 type  3   force =    -0.00000036    0.00000187    0.00000228
     atom   57 type  2   force =     0.00000016   -0.00000034    0.00000521
     atom   58 type  2   force =     0.00000020    0.00000006    0.00000449
     atom   59 type  2   force =    -0.00000035   -0.00000197    0.00000185
     atom   60 type  2   force =    -0.00000038   -0.00000255    0.00000119
     atom   61 type  2   force =     0.00000033    0.00000277    0.00000554
     atom   62 type  2   force =     0.00000012    0.00000123    0.00000471
     atom   63 type  2   force =    -0.00000027    0.00000027    0.00000282
     atom   64 type  2   force =    -0.00000004   -0.00000034    0.00000375
     atom   65 type  2   force =    -0.00000004   -0.00000233    0.00000559
     atom   66 type  2   force =    -0.00000023   -0.00000002    0.00000334
     atom   67 type  2   force =     0.00000029   -0.00000312    0.00000719
     atom   68 type  2   force =    -0.00000016   -0.00000360    0.00000469
     atom   69 type  2   force =     0.00000043    0.00000090    0.00000697
     atom   70 type  2   force =    -0.00000008   -0.00000251    0.00000665
     atom   71 type  2   force =    -0.00000032    0.00000074    0.00000107
     atom   72 type  1   force =    -0.00000001    0.00000012    0.00000005
     atom   73 type  1   force =    -0.00000005    0.00000038    0.00000069
     atom   74 type  1   force =    -0.00000003    0.00000014    0.00000088
     atom   75 type  1   force =    -0.00000001   -0.00000017    0.00000025
     atom   76 type  1   force =    -0.00000009   -0.00000017   -0.00000031
     atom   77 type  1   force =    -0.00000002    0.00000067    0.00000084
     atom   78 type  1   force =    -0.00000005    0.00000007    0.00000087
     atom   79 type  1   force =    -0.00000009   -0.00000007    0.00000028
     atom   80 type  1   force =    -0.00000007   -0.00000010    0.00000035
     atom   81 type  1   force =    -0.00000016    0.00000060   -0.00000007
     atom   82 type  3   force =     0.00000004    0.00000163   -0.00000104
     atom   83 type  3   force =     0.00000022    0.00000198   -0.00000224
     atom   84 type  2   force =    -0.00000008    0.00000034   -0.00000265
     atom   85 type  2   force =     0.00000005   -0.00000028   -0.00000168
     atom   86 type  2   force =     0.00000012    0.00000095   -0.00000019
     atom   87 type  2   force =     0.00000013    0.00000121    0.00000025
     atom   88 type  2   force =    -0.00000004   -0.00000086   -0.00000271
     atom   89 type  2   force =    -0.00000010   -0.00000133   -0.00000236
     atom   90 type  2   force =     0.00000010   -0.00000114   -0.00000082
     atom   91 type  2   force =     0.00000021   -0.00000028   -0.00000057
     atom   92 type  2   force =    -0.00000021    0.00000205   -0.00000305
     atom   93 type  2   force =    -0.00000011    0.00000077   -0.00000220
     atom   94 type  2   force =    -0.00000024    0.00000136   -0.00000343
     atom   95 type  2   force =     0.00000012    0.00000067   -0.00000170
     atom   96 type  2   force =    -0.00000025   -0.00000021   -0.00000380
     atom   97 type  2   force =     0.00000013   -0.00000001   -0.00000258
     atom   98 type  2   force =     0.00000034    0.00000213   -0.00000142
     atom   99 type  1   force =     0.00000004    0.00000034   -0.00000013
     atom  100 type  1   force =    -0.00000001   -0.00000007   -0.00000063
     atom  101 type  1   force =     0.00000005   -0.00000035   -0.00000042
     atom  102 type  1   force =     0.00000008    0.00000020    0.00000011
     atom  103 type  1   force =     0.00000001    0.00000026    0.00000028
     atom  104 type  1   force =    -0.00000000   -0.00000021   -0.00000052
     atom  105 type  1   force =     0.00000002   -0.00000036   -0.00000048
     atom  106 type  1   force =     0.00000007   -0.00000036    0.00000007
     atom  107 type  1   force =     0.00000004    0.00000001   -0.00000001
     atom  108 type  1   force =     0.00000004    0.00000011   -0.00000005

     XDM contribution to forces:
     atom    1 type  3   force =     0.00048259    0.00001672    0.00021490
     atom    2 type  3   force =    -0.00053909   -0.00031865    0.00030894
     atom    3 type  2   force =    -0.00009454   -0.00045408   -0.00039559
     atom    4 type  2   force =     0.00018419   -0.00006138   -0.00038350
     atom    5 type  2   force =     0.00052350   -0.00010498   -0.00003422
     atom    6 type  2   force =     0.00027942   -0.00041751   -0.00043175
     atom    7 type  2   force =     0.00012153    0.00036569    0.00016665
     atom    8 type  2   force =    -0.00018066   -0.00002296    0.00025664
     atom    9 type  2   force =    -0.00051710    0.00049184   -0.00012488
     atom   10 type  2   force =    -0.00035950    0.00059077    0.00033371
     atom   11 type  2   force =    -0.00008150   -0.00033265    0.00067498
     atom   12 type  2   force =     0.00020579    0.00024391   -0.00052768
     atom   13 type  2   force =    -0.00014014   -0.00038328   -0.00026425
     atom   14 type  2   force =     0.00008604   -0.00023329   -0.00065571
     atom   15 type  2   force =     0.00019593    0.00058340   -0.00013320
     atom   16 type  2   force =    -0.00014795    0.00041473    0.00036277
     atom   17 type  2   force =    -0.00015101   -0.00024315    0.00054569
     atom   18 type  1   force =     0.00017322   -0.00008258   -0.00001839
     atom   19 type  1   force =     0.00003343   -0.00011431    0.00004287
     atom   20 type  1   force =     0.00004520    0.00003154   -0.00001423
     atom   21 type  1   force =     0.00019001    0.00005731    0.00009967
     atom   22 type  1   force =     0.00005883   -0.00007242   -0.00009677
     atom   23 type  1   force =     0.00004621    0.00004461   -0.00004285
     atom   24 type  1   force =    -0.00005504   -0.00007243    0.00008332
     atom   25 type  1   force =    -0.00021346    0.00014655   -0.00007240
     atom   26 type  1   force =    -0.00022693    0.00000522    0.00016531
     atom   27 type  1   force =     0.00015824    0.00004644   -0.00012564
     atom   28 type  3   force =    -0.00048256    0.00001671   -0.00021494
     atom   29 type  3   force =     0.00053905   -0.00031869   -0.00030901
     atom   30 type  2   force =     0.00009459   -0.00045415    0.00039556
     atom   31 type  2   force =    -0.00018422   -0.00006139    0.00038355
     atom   32 type  2   force =    -0.00052355   -0.00010500    0.00003436
     atom   33 type  2   force =    -0.00027943   -0.00041754    0.00043187
     atom   34 type  2   force =    -0.00012152    0.00036575   -0.00016670
     atom   35 type  2   force =     0.00018067   -0.00002292   -0.00025671
     atom   36 type  2   force =     0.00051713    0.00049190    0.00012478
     atom   37 type  2   force =     0.00035954    0.00059082   -0.00033380
     atom   38 type  2   force =     0.00008153   -0.00033265   -0.00067506
     atom   39 type  2   force =    -0.00020579    0.00024389    0.00052775
     atom   40 type  2   force =     0.00014011   -0.00038331    0.00026426
     atom   41 type  2   force =    -0.00008610   -0.00023333    0.00065579
     atom   42 type  2   force =    -0.00019594    0.00058342    0.00013317
     atom   43 type  2   force =     0.00014796    0.00041474   -0.00036284
     atom   44 type  2   force =     0.00015105   -0.00024318   -0.00054580
     atom   45 type  1   force =    -0.00017319   -0.00008258    0.00001836
     atom   46 type  1   force =    -0.00003343   -0.00011432   -0.00004290
     atom   47 type  1   force =    -0.00004521    0.00003154    0.00001424
     atom   48 type  1   force =    -0.00019001    0.00005731   -0.00009963
     atom   49 type  1   force =    -0.00005885   -0.00007242    0.00009683
     atom   50 type  1   force =    -0.00004622    0.00004463    0.00004287
     atom   51 type  1   force =     0.00005503   -0.00007241   -0.00008333
     atom   52 type  1   force =     0.00021348    0.00014659    0.00007235
     atom   53 type  1   force =     0.00022695    0.00000523   -0.00016535
     atom   54 type  1   force =    -0.00015825    0.00004644    0.00012568
     atom   55 type  3   force =    -0.00048260   -0.00001670   -0.00021489
     atom   56 type  3   force =     0.00053908    0.00031861   -0.00030898
     atom   57 type  2   force =     0.00009459    0.00045406    0.00039553
     atom   58 type  2   force =    -0.00018417    0.00006133    0.00038361
     atom   59 type  2   force =    -0.00052353    0.00010495    0.00003438
     atom   60 type  2   force =    -0.00027943    0.00041748    0.00043187
     atom   61 type  2   force =    -0.00012152   -0.00036565   -0.00016664
     atom   62 type  2   force =     0.00018062    0.00002301   -0.00025670
     atom   63 type  2   force =     0.00051709   -0.00049182    0.00012484
     atom   64 type  2   force =     0.00035953   -0.00059079   -0.00033372
     atom   65 type  2   force =     0.00008153    0.00033261   -0.00067502
     atom   66 type  2   force =    -0.00020580   -0.00024385    0.00052777
     atom   67 type  2   force =     0.00014012    0.00038326    0.00026424
     atom   68 type  2   force =    -0.00008609    0.00023330    0.00065581
     atom   69 type  2   force =    -0.00019597   -0.00058334    0.00013322
     atom   70 type  2   force =     0.00014791   -0.00041474   -0.00036276
     atom   71 type  2   force =     0.00015110    0.00024311   -0.00054574
     atom   72 type  1   force =    -0.00017319    0.00008258    0.00001837
     atom   73 type  1   force =    -0.00003343    0.00011429   -0.00004290
     atom   74 type  1   force =    -0.00004517   -0.00003153    0.00001426
     atom   75 type  1   force =    -0.00018999   -0.00005732   -0.00009964
     atom   76 type  1   force =    -0.00005886    0.00007243    0.00009679
     atom   77 type  1   force =    -0.00004623   -0.00004459    0.00004289
     atom   78 type  1   force =     0.00005500    0.00007242   -0.00008331
     atom   79 type  1   force =     0.00021346   -0.00014656    0.00007237
     atom   80 type  1   force =     0.00022695   -0.00000524   -0.00016531
     atom   81 type  1   force =    -0.00015825   -0.00004642    0.00012568
     atom   82 type  3   force =     0.00048256   -0.00001670    0.00021493
     atom   83 type  3   force =    -0.00053908    0.00031863    0.00030894
     atom   84 type  2   force =    -0.00009451    0.00045412   -0.00039557
     atom   85 type  2   force =     0.00018425    0.00006142   -0.00038361
     atom   86 type  2   force =     0.00052352    0.00010504   -0.00003431
     atom   87 type  2   force =     0.00027936    0.00041752   -0.00043177
     atom   88 type  2   force =     0.00012150   -0.00036570    0.00016662
     atom   89 type  2   force =    -0.00018067    0.00002300    0.00025667
     atom   90 type  2   force =    -0.00051709   -0.00049183   -0.00012486
     atom   91 type  2   force =    -0.00035950   -0.00059082    0.00033369
     atom   92 type  2   force =    -0.00008150    0.00033262    0.00067500
     atom   93 type  2   force =     0.00020575   -0.00024393   -0.00052770
     atom   94 type  2   force =    -0.00014011    0.00038327   -0.00026422
     atom   95 type  2   force =     0.00008604    0.00023328   -0.00065574
     atom   96 type  2   force =     0.00019591   -0.00058341   -0.00013322
     atom   97 type  2   force =    -0.00014794   -0.00041476    0.00036278
     atom   98 type  2   force =    -0.00015103    0.00024315    0.00054573
     atom   99 type  1   force =     0.00017320    0.00008257   -0.00001837
     atom  100 type  1   force =     0.00003346    0.00011430    0.00004290
     atom  101 type  1   force =     0.00004521   -0.00003151   -0.00001428
     atom  102 type  1   force =     0.00019001   -0.00005729    0.00009967
     atom  103 type  1   force =     0.00005883    0.00007242   -0.00009676
     atom  104 type  1   force =     0.00004621   -0.00004460   -0.00004287
     atom  105 type  1   force =    -0.00005503    0.00007243    0.00008333
     atom  106 type  1   force =    -0.00021346   -0.00014656   -0.00007242
     atom  107 type  1   force =    -0.00022694   -0.00000523    0.00016531
     atom  108 type  1   force =     0.00015823   -0.00004645   -0.00012565

     Total force =     0.001256     Total SCF correction =     0.000027

     Total XDM Force =     0.005123


     Computing stress (Cartesian axis) and pressure

          total   stress  (Ry/bohr**3)                   (kbar)     P=       -0.03
  -0.00000004  -0.00000004  -0.00000011           -0.01       -0.01       -0.02
  -0.00000004  -0.00000047   0.00000003           -0.01       -0.07        0.00
  -0.00000011   0.00000003  -0.00000014           -0.02        0.00       -0.02

     kinetic stress (kbar)   9421.64      0.01   -262.30
                                0.01   8637.60     -0.00
                             -262.30     -0.00   8733.91

     local   stress (kbar)  -3396.49      0.19  -5338.52
                                0.19 -14638.28     -0.05
                            -5338.52     -0.05 -11273.37

     nonloc. stress (kbar)   2358.87     -0.00     65.73
                               -0.00   2518.31      0.00
                               65.73      0.00   2494.77

     hartree stress (kbar)   2563.68     -0.06   1559.41
                               -0.06   4933.31      0.01
                             1559.41      0.01   3677.02

     exc-cor stress (kbar)  -1295.35     -0.00     20.76
                               -0.00  -1235.55      0.00
                               20.76      0.00  -1242.02

     corecor stress (kbar)   -919.37      0.00     -6.40
                                0.00   -936.26     -0.00
                               -6.40     -0.00   -933.54

     ewald   stress (kbar)  -8710.89     -0.14   3960.00
                               -0.14    738.48      0.05
                             3960.00      0.05  -1438.95

     hubbard stress (kbar)      0.00      0.00      0.00
                                0.00      0.00      0.00
                                0.00      0.00      0.00

     london  stress (kbar)      0.00      0.00      0.00
                                0.00      0.00      0.00
                                0.00      0.00      0.00

     DFT-D3  stress (kbar)      0.00      0.00      0.00
                                0.00      0.00      0.00
                                0.00      0.00      0.00

     XDM     stress (kbar)    -22.09     -0.00      1.32
                               -0.00    -17.67      0.00
                                1.32      0.00    -17.84

     dft-nl  stress (kbar)      0.00      0.00      0.00
                                0.00      0.00      0.00
                                0.00      0.00      0.00

     TS-vdW  stress (kbar)      0.00      0.00      0.00
                                0.00      0.00      0.00
                                0.00      0.00      0.00



     Writing output data file /scratch/cperr024/job_17557926/QQQFDJ01.save/

     init_run     :     44.39s CPU     44.80s WALL (       2 calls)
     electrons    :  14609.39s CPU  15046.06s WALL (      12 calls)
     update_pot   :    145.10s CPU    145.86s WALL (      10 calls)
     forces       :    115.71s CPU    118.57s WALL (      12 calls)
     stress       :    660.74s CPU    674.77s WALL (      12 calls)

     Called by init_run:
     wfcinit      :     11.65s CPU     11.77s WALL (       2 calls)
     wfcinit:atom :      0.19s CPU      0.19s WALL (      22 calls)
     wfcinit:wfcr :     10.63s CPU     10.73s WALL (      22 calls)
     potinit      :      9.17s CPU      9.22s WALL (       2 calls)
     hinit0       :     22.31s CPU     22.43s WALL (       2 calls)
     init_xdm     :      0.00s CPU      0.00s WALL (       1 calls)

     Called by electrons:
     c_bands      :  11157.87s CPU  11493.19s WALL (     518 calls)
     sum_band     :   3095.85s CPU   3180.21s WALL (     518 calls)
     v_of_rho     :     76.78s CPU     78.28s WALL (     523 calls)
     v_h          :      6.05s CPU      6.23s WALL (     523 calls)
     v_xc         :     73.29s CPU     74.64s WALL (     547 calls)
     newd         :    125.22s CPU    137.61s WALL (     523 calls)
     PAW_pot      :     84.29s CPU     84.98s WALL (     533 calls)
     mix_rho      :     33.73s CPU     35.12s WALL (     518 calls)
     energy_xdm   :     34.26s CPU     34.64s WALL (      12 calls)
     exdm:environ :      0.07s CPU      0.08s WALL (      14 calls)
     exdm:paw_cha :      1.99s CPU      2.00s WALL (       2 calls)
     exdm:rho     :     12.37s CPU     12.43s WALL (       2 calls)

     Called by c_bands:
     init_us_2    :    124.41s CPU    126.12s WALL (   11792 calls)
     cegterg      :  10980.33s CPU  11312.17s WALL (    5722 calls)

     Called by sum_band:
     sum_band:bec :      3.37s CPU      3.42s WALL (    5808 calls)
     addusdens    :    131.21s CPU    149.64s WALL (     518 calls)

     Called by *egterg:
     h_psi        :   5076.70s CPU   5242.04s WALL (   42139 calls)
     s_psi        :    599.56s CPU    604.21s WALL (   42139 calls)
     g_psi        :     10.79s CPU     10.93s WALL (   36395 calls)
     cdiaghg      :   2794.33s CPU   2876.48s WALL (   41930 calls)
     cegterg:over :   1075.09s CPU   1117.73s WALL (   36395 calls)
     cegterg:upda :    778.54s CPU    793.41s WALL (   36395 calls)
     cegterg:last :    374.18s CPU    379.66s WALL (    6540 calls)
     cdiaghg:chol :    104.95s CPU    106.77s WALL (   41930 calls)
     cdiaghg:inve :    117.01s CPU    118.85s WALL (   41930 calls)
     cdiaghg:para :    423.01s CPU    429.22s WALL (   83860 calls)

     Called by h_psi:
     h_psi:calbec :   1027.65s CPU   1054.55s WALL (   42139 calls)
     vloc_psi     :   3390.25s CPU   3523.06s WALL (   42139 calls)
     add_vuspsi   :    617.60s CPU    622.77s WALL (   42139 calls)

     General routines
     calbec       :   1421.72s CPU   1456.50s WALL (   48607 calls)
     fft          :    123.38s CPU    125.73s WALL (    8628 calls)
     ffts         :      6.35s CPU      6.68s WALL (    1559 calls)
     fftw         :   5593.72s CPU   5779.62s WALL ( 9069822 calls)
     interpolate  :      7.66s CPU      7.91s WALL (     523 calls)

     Parallel routines
     fft_scatt_xy :    238.39s CPU    241.39s WALL ( 9080009 calls)
     fft_scatt_yz :   4709.51s CPU   4885.29s WALL ( 9080009 calls)

     PAW routines
     PAW_pot      :     84.29s CPU     84.98s WALL (     533 calls)

     PWSCF        :      4h19m CPU      4h27m WALL


   This run was terminated on:  14:32:53  17Nov2022            

=------------------------------------------------------------------------------=
   JOB DONE.
=------------------------------------------------------------------------------=
